
     Program BANDS v.7.2 starts on 19Oct2023 at 14:36:18 

     This program is part of the open-source Quantum ESPRESSO suite
     for quantum simulation of materials; please cite
         "P. Giannozzi et al., J. Phys.:Condens. Matter 21 395502 (2009);
         "P. Giannozzi et al., J. Phys.:Condens. Matter 29 465901 (2017);
         "P. Giannozzi et al., J. Chem. Phys. 152 154105 (2020);
          URL http://www.quantum-espresso.org", 
     in publications or presentations arising from this work. More details at
     http://www.quantum-espresso.org/quote

     Parallel version (MPI), running on     6 processors

     MPI processes distributed on     1 nodes
     R & G space division:  proc/nbgrp/npool/nimage =       6
     4745 MiB available memory on the printing compute node when the environment starts


     Reading xml data from directory:

     ./GaAs.save/
     file Ga.pbe-dn-kjpaw_psl.1.0.0.UPF: wavefunction(s)  4S renormalized

     IMPORTANT: XC functional enforced from input :
     Exchange-correlation= PBE
                           (   1   4   3   4   0   0   0)
     Any further DFT definition will be discarded
     Please, verify this is what you really want


     Parallelization info
     --------------------
     sticks:   dense  smooth     PW     G-vecs:    dense   smooth      PW
     Min         159     159     50                 3259     3198     579
     Max         160     160     51                 3278     3200     582
     Sum         955     955    301                19603    19195    3479

     Using Slab Decomposition

     Reading collected, re-writing distributed wavefunctions
     high-symmetry point:  0.5000 0.5000 0.5000   x coordinate   0.0000
     high-symmetry point:  0.0000 0.0000 0.0000   x coordinate   0.8660
     high-symmetry point:  1.0000 0.0000 0.0000   x coordinate   1.8660
     high-symmetry point:  1.0500-0.3000 0.3000   x coordinate   2.2932
     high-symmetry point:  1.0000-1.0000 1.0000   x coordinate   3.2844

     Plottable bands (eV) written to file bands.dat.gnu
     Bands written to file bands.dat

 **************************************************************************

                    xk=(   0.50000,   0.50000,   0.50000  )

     point group C_3v (3m)  
     there are  3 classes
     the character table:

       E     2C3   3s_v 
A_1    1.00  1.00  1.00
A_2    1.00  1.00 -1.00
E      2.00 -1.00  0.00

     the symmetry operations in each class and the name of the first element:

     E        1
                                                                 
     2C3      2    3
                                                                 
     3s_v     4    5    6
                                                                 

     Band symmetry, C_3v (3m)   point group:

     e(  1 -  1) =     -8.14988  eV     1   --> A_1  L_1       
     e(  2 -  3) =     -8.05168  eV     2   --> E    L_3       
     e(  4 -  5) =     -7.98845  eV     2   --> E    L_3       
     e(  6 -  6) =     -4.25477  eV     1   --> A_1  L_1       
     e(  7 -  7) =      0.07086  eV     1   --> A_1  L_1       
     e(  8 -  9) =      5.56811  eV     2   --> E    L_3       
     e( 10 - 10) =      7.70581  eV     1   --> A_1  L_1       
     e( 11 - 12) =     11.34480  eV     2   --> E    L_3       
     e( 13 - 13) =     14.52493  eV     1   --> A_1  L_1       
     e( 14 - 14) =     17.14766  eV     1   --> A_1  L_1       
     e( 15 - 16) =     18.69868  eV     2   --> E    L_3       

 **************************************************************************

 **************************************************************************

                    xk=(   0.48750,   0.48750,   0.48750  )

     Band symmetry, C_3v (3m)   point group:

     e(  1 -  1) =     -8.14977  eV     1   --> A_1  L_1       
     e(  2 -  3) =     -8.05169  eV     2   --> E    L_3       
     e(  4 -  5) =     -7.98847  eV     2   --> E    L_3       
     e(  6 -  6) =     -4.25942  eV     1   --> A_1  L_1       
     e(  7 -  7) =      0.07917  eV     1   --> A_1  L_1       
     e(  8 -  9) =      5.56935  eV     2   --> E    L_3       
     e( 10 - 10) =      7.70708  eV     1   --> A_1  L_1       
     e( 11 - 12) =     11.34553  eV     2   --> E    L_3       
     e( 13 - 13) =     14.52542  eV     1   --> A_1  L_1       
     e( 14 - 14) =     17.11680  eV     1   --> A_1  L_1       
     e( 15 - 16) =     18.64936  eV     2   --> E    L_3       

 **************************************************************************

 **************************************************************************

                    xk=(   0.47500,   0.47500,   0.47500  )

     Band symmetry, C_3v (3m)   point group:

     e(  1 -  1) =     -8.14945  eV     1   --> A_1  L_1       
     e(  2 -  3) =     -8.05175  eV     2   --> E    L_3       
     e(  4 -  5) =     -7.98853  eV     2   --> E    L_3       
     e(  6 -  6) =     -4.27324  eV     1   --> A_1  L_1       
     e(  7 -  7) =      0.10400  eV     1   --> A_1  L_1       
     e(  8 -  9) =      5.57307  eV     2   --> E    L_3       
     e( 10 - 10) =      7.71099  eV     1   --> A_1  L_1       
     e( 11 - 12) =     11.34770  eV     2   --> E    L_3       
     e( 13 - 13) =     14.52689  eV     1   --> A_1  L_1       
     e( 14 - 14) =     17.02984  eV     1   --> A_1  L_1       
     e( 15 - 16) =     18.52127  eV     2   --> E    L_3       

 **************************************************************************

 **************************************************************************

                    xk=(   0.46250,   0.46250,   0.46250  )

     Band symmetry, C_3v (3m)   point group:

     e(  1 -  1) =     -8.14894  eV     1   --> A_1  L_1       
     e(  2 -  3) =     -8.05184  eV     2   --> E    L_3       
     e(  4 -  5) =     -7.98862  eV     2   --> E    L_3       
     e(  6 -  6) =     -4.29595  eV     1   --> A_1  L_1       
     e(  7 -  7) =      0.14497  eV     1   --> A_1  L_1       
     e(  8 -  9) =      5.57926  eV     2   --> E    L_3       
     e( 10 - 10) =      7.71732  eV     1   --> A_1  L_1       
     e( 11 - 12) =     11.35122  eV     2   --> E    L_3       
     e( 13 - 13) =     14.52851  eV     1   --> A_1  L_1       
     e( 14 - 14) =     16.89981  eV     1   --> A_1  L_1       
     e( 15 - 16) =     18.34859  eV     2   --> E    L_3       

 **************************************************************************

 **************************************************************************

                    xk=(   0.45000,   0.45000,   0.45000  )

     Band symmetry, C_3v (3m)   point group:

     e(  1 -  1) =     -8.14821  eV     1   --> A_1  L_1       
     e(  2 -  3) =     -8.05198  eV     2   --> E    L_3       
     e(  4 -  5) =     -7.98874  eV     2   --> E    L_3       
     e(  6 -  6) =     -4.32694  eV     1   --> A_1  L_1       
     e(  7 -  7) =      0.20154  eV     1   --> A_1  L_1       
     e(  8 -  9) =      5.58790  eV     2   --> E    L_3       
     e( 10 - 10) =      7.72622  eV     1   --> A_1  L_1       
     e( 11 - 12) =     11.35599  eV     2   --> E    L_3       
     e( 13 - 13) =     14.52975  eV     1   --> A_1  L_1       
     e( 14 - 14) =     16.74117  eV     1   --> A_1  L_1       
     e( 15 - 16) =     18.15511  eV     2   --> E    L_3       

 **************************************************************************

 **************************************************************************

                    xk=(   0.43750,   0.43750,   0.43750  )

     Band symmetry, C_3v (3m)   point group:

     e(  1 -  1) =     -8.14728  eV     1   --> A_1  L_1       
     e(  2 -  3) =     -8.05215  eV     2   --> E    L_3       
     e(  4 -  5) =     -7.98890  eV     2   --> E    L_3       
     e(  6 -  6) =     -4.36552  eV     1   --> A_1  L_1       
     e(  7 -  7) =      0.27297  eV     1   --> A_1  L_1       
     e(  8 -  9) =      5.59894  eV     2   --> E    L_3       
     e( 10 - 10) =      7.73762  eV     1   --> A_1  L_1       
     e( 11 - 12) =     11.36175  eV     2   --> E    L_3       
     e( 13 - 13) =     14.52915  eV     1   --> A_1  L_1       
     e( 14 - 14) =     16.56610  eV     1   --> A_1  L_1       
     e( 15 - 16) =     17.95317  eV     2   --> E    L_3       

 **************************************************************************

 **************************************************************************

                    xk=(   0.42500,   0.42500,   0.42500  )

     Band symmetry, C_3v (3m)   point group:

     e(  1 -  1) =     -8.14617  eV     1   --> A_1  L_1       
     e(  2 -  3) =     -8.05236  eV     2   --> E    L_3       
     e(  4 -  5) =     -7.98909  eV     2   --> E    L_3       
     e(  6 -  6) =     -4.41092  eV     1   --> A_1  L_1       
     e(  7 -  7) =      0.35844  eV     1   --> A_1  L_1       
     e(  8 -  9) =      5.61250  eV     2   --> E    L_3       
     e( 10 - 10) =      7.75145  eV     1   --> A_1  L_1       
     e( 11 - 12) =     11.36855  eV     2   --> E    L_3       
     e( 13 - 13) =     14.52450  eV     1   --> A_1  L_1       
     e( 14 - 14) =     16.38431  eV     1   --> A_1  L_1       
     e( 15 - 16) =     17.75001  eV     2   --> E    L_3       

 **************************************************************************

 **************************************************************************

                    xk=(   0.41250,   0.41250,   0.41250  )

     Band symmetry, C_3v (3m)   point group:

     e(  1 -  1) =     -8.14485  eV     1   --> A_1  L_1       
     e(  2 -  3) =     -8.05261  eV     2   --> E    L_3       
     e(  4 -  5) =     -7.98930  eV     2   --> E    L_3       
     e(  6 -  6) =     -4.46220  eV     1   --> A_1  L_1       
     e(  7 -  7) =      0.45706  eV     1   --> A_1  L_1       
     e(  8 -  9) =      5.62842  eV     2   --> E    L_3       
     e( 10 - 10) =      7.76779  eV     1   --> A_1  L_1       
     e( 11 - 12) =     11.37580  eV     2   --> E    L_3       
     e( 13 - 13) =     14.51306  eV     1   --> A_1  L_1       
     e( 14 - 14) =     16.20412  eV     1   --> A_1  L_1       
     e( 15 - 16) =     17.54911  eV     2   --> E    L_3       

 **************************************************************************

 **************************************************************************

                    xk=(   0.40000,   0.40000,   0.40000  )

     Band symmetry, C_3v (3m)   point group:

     e(  1 -  1) =     -8.14334  eV     1   --> A_1  L_1       
     e(  2 -  3) =     -8.05291  eV     2   --> E    L_3       
     e(  4 -  5) =     -7.98953  eV     2   --> E    L_3       
     e(  6 -  6) =     -4.51850  eV     1   --> A_1  L_1       
     e(  7 -  7) =      0.56790  eV     1   --> A_1  L_1       
     e(  8 -  9) =      5.64670  eV     2   --> E    L_3       
     e( 10 - 10) =      7.78652  eV     1   --> A_1  L_1       
     e( 11 - 12) =     11.38323  eV     2   --> E    L_3       
     e( 13 - 13) =     14.49040  eV     1   --> A_1  L_1       
     e( 14 - 14) =     16.03325  eV     1   --> A_1  L_1       
     e( 15 - 16) =     17.35271  eV     2   --> E    L_3       

 **************************************************************************

 **************************************************************************

                    xk=(   0.38750,   0.38750,   0.38750  )

     Band symmetry, C_3v (3m)   point group:

     e(  1 -  1) =     -8.14164  eV     1   --> A_1  L_1       
     e(  2 -  3) =     -8.05324  eV     2   --> E    L_3       
     e(  4 -  5) =     -7.98978  eV     2   --> E    L_3       
     e(  6 -  6) =     -4.57895  eV     1   --> A_1  L_1       
     e(  7 -  7) =      0.69006  eV     1   --> A_1  L_1       
     e(  8 -  9) =      5.66732  eV     2   --> E    L_3       
     e( 10 - 10) =      7.80764  eV     1   --> A_1  L_1       
     e( 11 - 12) =     11.39056  eV     2   --> E    L_3       
     e( 13 - 13) =     14.45103  eV     1   --> A_1  L_1       
     e( 14 - 14) =     15.87960  eV     1   --> A_1  L_1       
     e( 15 - 16) =     17.16296  eV     2   --> E    L_3       

 **************************************************************************

 **************************************************************************

                    xk=(   0.37500,   0.37500,   0.37500  )

     Band symmetry, C_3v (3m)   point group:

     e(  1 -  1) =     -8.13977  eV     1   --> A_1  L_1       
     e(  2 -  3) =     -8.05362  eV     2   --> E    L_3       
     e(  4 -  5) =     -7.99004  eV     2   --> E    L_3       
     e(  6 -  6) =     -4.64273  eV     1   --> A_1  L_1       
     e(  7 -  7) =      0.82265  eV     1   --> A_1  L_1       
     e(  8 -  9) =      5.69023  eV     2   --> E    L_3       
     e( 10 - 10) =      7.83103  eV     1   --> A_1  L_1       
     e( 11 - 12) =     11.39729  eV     2   --> E    L_3       
     e( 13 - 13) =     14.38871  eV     1   --> A_1  L_1       
     e( 14 - 14) =     15.75089  eV     1   --> A_1  L_1       
     e( 15 - 16) =     16.98094  eV     2   --> E    L_3       

 **************************************************************************

 **************************************************************************

                    xk=(   0.36250,   0.36250,   0.36250  )

     Band symmetry, C_3v (3m)   point group:

     e(  1 -  1) =     -8.13774  eV     1   --> A_1  L_1       
     e(  2 -  3) =     -8.05405  eV     2   --> E    L_3       
     e(  4 -  5) =     -7.99031  eV     2   --> E    L_3       
     e(  6 -  6) =     -4.70905  eV     1   --> A_1  L_1       
     e(  7 -  7) =      0.96484  eV     1   --> A_1  L_1       
     e(  8 -  9) =      5.71529  eV     2   --> E    L_3       
     e( 10 - 10) =      7.85660  eV     1   --> A_1  L_1       
     e( 11 - 12) =     11.40276  eV     2   --> E    L_3       
     e( 13 - 13) =     14.29848  eV     1   --> A_1  L_1       
     e( 14 - 14) =     15.65312  eV     1   --> A_1  L_1       
     e( 15 - 16) =     16.80764  eV     2   --> E    L_3       

 **************************************************************************

 **************************************************************************

                    xk=(   0.35000,   0.35000,   0.35000  )

     Band symmetry, C_3v (3m)   point group:

     e(  1 -  1) =     -8.13555  eV     1   --> A_1  L_1       
     e(  2 -  3) =     -8.05452  eV     2   --> E    L_3       
     e(  4 -  5) =     -7.99059  eV     2   --> E    L_3       
     e(  6 -  6) =     -4.77720  eV     1   --> A_1  L_1       
     e(  7 -  7) =      1.11588  eV     1   --> A_1  L_1       
     e(  8 -  9) =      5.74264  eV     2   --> E    L_3       
     e( 10 - 10) =      7.88431  eV     1   --> A_1  L_1       
     e( 11 - 12) =     11.40676  eV     2   --> E    L_3       
     e( 13 - 13) =     14.17900  eV     1   --> A_1  L_1       
     e( 14 - 14) =     15.58850  eV     1   --> A_1  L_1       
     e( 15 - 16) =     16.64426  eV     2   --> E    L_3       

 **************************************************************************

 **************************************************************************

                    xk=(   0.33750,   0.33750,   0.33750  )

     Band symmetry, C_3v (3m)   point group:

     e(  1 -  1) =     -8.13321  eV     1   --> A_1  L_1       
     e(  2 -  3) =     -8.05503  eV     2   --> E    L_3       
     e(  4 -  5) =     -7.99086  eV     2   --> E    L_3       
     e(  6 -  6) =     -4.84654  eV     1   --> A_1  L_1       
     e(  7 -  7) =      1.27506  eV     1   --> A_1  L_1       
     e(  8 -  9) =      5.77212  eV     2   --> E    L_3       
     e( 10 - 10) =      7.91402  eV     1   --> A_1  L_1       
     e( 11 - 12) =     11.40860  eV     2   --> E    L_3       
     e( 13 - 13) =     14.03296  eV     1   --> A_1  L_1       
     e( 14 - 14) =     15.55471  eV     1   --> A_1  L_1       
     e( 15 - 16) =     16.49168  eV     2   --> E    L_3       

 **************************************************************************

 **************************************************************************

                    xk=(   0.32500,   0.32500,   0.32500  )

     Band symmetry, C_3v (3m)   point group:

     e(  1 -  1) =     -8.13073  eV     1   --> A_1  L_1       
     e(  2 -  3) =     -8.05558  eV     2   --> E    L_3       
     e(  4 -  5) =     -7.99113  eV     2   --> E    L_3       
     e(  6 -  6) =     -4.91648  eV     1   --> A_1  L_1       
     e(  7 -  7) =      1.44173  eV     1   --> A_1  L_1       
     e(  8 -  9) =      5.80365  eV     2   --> E    L_3       
     e( 10 - 10) =      7.94557  eV     1   --> A_1  L_1       
     e( 11 - 12) =     11.40756  eV     2   --> E    L_3       
     e( 13 - 13) =     13.86571  eV     1   --> A_1  L_1       
     e( 14 - 14) =     15.54655  eV     1   --> A_1  L_1       
     e( 15 - 16) =     16.35069  eV     2   --> E    L_3       

 **************************************************************************

 **************************************************************************

                    xk=(   0.31250,   0.31250,   0.31250  )

     Band symmetry, C_3v (3m)   point group:

     e(  1 -  1) =     -8.12812  eV     1   --> A_1  L_1       
     e(  2 -  3) =     -8.05617  eV     2   --> E    L_3       
     e(  4 -  5) =     -7.99139  eV     2   --> E    L_3       
     e(  6 -  6) =     -4.98651  eV     1   --> A_1  L_1       
     e(  7 -  7) =      1.61531  eV     1   --> A_1  L_1       
     e(  8 -  9) =      5.83721  eV     2   --> E    L_3       
     e( 10 - 10) =      7.97880  eV     1   --> A_1  L_1       
     e( 11 - 12) =     11.40317  eV     2   --> E    L_3       
     e( 13 - 13) =     13.68310  eV     1   --> A_1  L_1       
     e( 14 - 14) =     15.55822  eV     1   --> A_1  L_1       
     e( 15 - 16) =     16.22242  eV     2   --> E    L_3       

 **************************************************************************

 **************************************************************************

                    xk=(   0.30000,   0.30000,   0.30000  )

     Band symmetry, C_3v (3m)   point group:

     e(  1 -  1) =     -8.12541  eV     1   --> A_1  L_1       
     e(  2 -  3) =     -8.05681  eV     2   --> E    L_3       
     e(  4 -  5) =     -7.99164  eV     2   --> E    L_3       
     e(  6 -  6) =     -5.05619  eV     1   --> A_1  L_1       
     e(  7 -  7) =      1.79522  eV     1   --> A_1  L_1       
     e(  8 -  9) =      5.87255  eV     2   --> E    L_3       
     e( 10 - 10) =      8.01346  eV     1   --> A_1  L_1       
     e( 11 - 12) =     11.39465  eV     2   --> E    L_3       
     e( 13 - 13) =     13.49006  eV     1   --> A_1  L_1       
     e( 14 - 14) =     15.58451  eV     1   --> A_1  L_1       
     e( 15 - 16) =     16.10702  eV     2   --> E    L_3       

 **************************************************************************

 **************************************************************************

                    xk=(   0.28750,   0.28750,   0.28750  )

     Band symmetry, C_3v (3m)   point group:

     e(  1 -  1) =     -8.12258  eV     1   --> A_1  L_1       
     e(  2 -  3) =     -8.05748  eV     2   --> E    L_3       
     e(  4 -  5) =     -7.99187  eV     2   --> E    L_3       
     e(  6 -  6) =     -5.12509  eV     1   --> A_1  L_1       
     e(  7 -  7) =      1.98104  eV     1   --> A_1  L_1       
     e(  8 -  9) =      5.90968  eV     2   --> E    L_3       
     e( 10 - 10) =      8.04935  eV     1   --> A_1  L_1       
     e( 11 - 12) =     11.38157  eV     2   --> E    L_3       
     e( 13 - 13) =     13.29053  eV     1   --> A_1  L_1       
     e( 14 - 14) =     15.62126  eV     1   --> A_1  L_1       
     e( 15 - 16) =     16.00567  eV     2   --> E    L_3       

 **************************************************************************

 **************************************************************************

                    xk=(   0.27500,   0.27500,   0.27500  )

     Band symmetry, C_3v (3m)   point group:

     e(  1 -  1) =     -8.11967  eV     1   --> A_1  L_1       
     e(  2 -  3) =     -8.05818  eV     2   --> E    L_3       
     e(  4 -  5) =     -7.99209  eV     2   --> E    L_3       
     e(  6 -  6) =     -5.19288  eV     1   --> A_1  L_1       
     e(  7 -  7) =      2.17221  eV     1   --> A_1  L_1       
     e(  8 -  9) =      5.94846  eV     2   --> E    L_3       
     e( 10 - 10) =      8.08608  eV     1   --> A_1  L_1       
     e( 11 - 12) =     11.36344  eV     2   --> E    L_3       
     e( 13 - 13) =     13.08715  eV     1   --> A_1  L_1       
     e( 14 - 14) =     15.66482  eV     1   --> A_1  L_1       
     e( 15 - 16) =     15.91890  eV     2   --> E    L_3       

 **************************************************************************

 **************************************************************************

                    xk=(   0.26250,   0.26250,   0.26250  )

     Band symmetry, C_3v (3m)   point group:

     e(  1 -  1) =     -8.11669  eV     1   --> A_1  L_1       
     e(  2 -  3) =     -8.05892  eV     2   --> E    L_3       
     e(  4 -  5) =     -7.99229  eV     2   --> E    L_3       
     e(  6 -  6) =     -5.25921  eV     1   --> A_1  L_1       
     e(  7 -  7) =      2.36837  eV     1   --> A_1  L_1       
     e(  8 -  9) =      5.98876  eV     2   --> E    L_3       
     e( 10 - 10) =      8.12329  eV     1   --> A_1  L_1       
     e( 11 - 12) =     11.33994  eV     2   --> E    L_3       
     e( 13 - 13) =     12.88213  eV     1   --> A_1  L_1       
     e( 14 - 14) =     15.71206  eV     1   --> A_1  L_1       
     e( 15 - 16) =     15.84735  eV     2   --> E    L_3       

 **************************************************************************

 **************************************************************************

                    xk=(   0.25000,   0.25000,   0.25000  )

     Band symmetry, C_3v (3m)   point group:

     e(  1 -  1) =     -8.11366  eV     1   --> A_1  L_1       
     e(  2 -  3) =     -8.05968  eV     2   --> E    L_3       
     e(  4 -  5) =     -7.99247  eV     2   --> E    L_3       
     e(  6 -  6) =     -5.32384  eV     1   --> A_1  L_1       
     e(  7 -  7) =      2.56902  eV     1   --> A_1  L_1       
     e(  8 -  9) =      6.03039  eV     2   --> E    L_3       
     e( 10 - 10) =      8.16047  eV     1   --> A_1  L_1       
     e( 11 - 12) =     11.31088  eV     2   --> E    L_3       
     e( 13 - 13) =     12.67691  eV     1   --> A_1  L_1       
     e( 14 - 14) =     15.75968  eV     1   --> A_1  L_1       
     e( 15 - 16) =     15.79102  eV     2   --> E    L_3       

 **************************************************************************

 **************************************************************************

                    xk=(   0.23750,   0.23750,   0.23750  )

     Band symmetry, C_3v (3m)   point group:

     e(  1 -  1) =     -8.11059  eV     1   --> A_1  L_1       
     e(  2 -  3) =     -8.06046  eV     2   --> E    L_3       
     e(  4 -  5) =     -7.99263  eV     2   --> E    L_3       
     e(  6 -  6) =     -5.38649  eV     1   --> A_1  L_1       
     e(  7 -  7) =      2.77389  eV     1   --> A_1  L_1       
     e(  8 -  9) =      6.07318  eV     2   --> E    L_3       
     e( 10 - 10) =      8.19703  eV     1   --> A_1  L_1       
     e( 11 - 12) =     11.27610  eV     2   --> E    L_3       
     e( 13 - 13) =     12.47301  eV     1   --> A_1  L_1       
     e( 14 - 15) =     15.75024  eV     2   --> E    L_3       
     e( 16 - 16) =     15.80413  eV     1   --> A_1  L_1       

 **************************************************************************

 **************************************************************************

                    xk=(   0.22500,   0.22500,   0.22500  )

     Band symmetry, C_3v (3m)   point group:

     e(  1 -  1) =     -8.10750  eV     1   --> A_1  L_1       
     e(  2 -  3) =     -8.06125  eV     2   --> E    L_3       
     e(  4 -  5) =     -7.99277  eV     2   --> E    L_3       
     e(  6 -  6) =     -5.44696  eV     1   --> A_1  L_1       
     e(  7 -  7) =      2.98258  eV     1   --> A_1  L_1       
     e(  8 -  9) =      6.11710  eV     2   --> E    L_3       
     e( 10 - 10) =      8.23225  eV     1   --> A_1  L_1       
     e( 11 - 12) =     11.23594  eV     2   --> E    L_3       
     e( 13 - 13) =     12.27159  eV     1   --> A_1  L_1       
     e( 14 - 15) =     15.72542  eV     2   --> E    L_3       
     e( 16 - 16) =     15.84091  eV     1   --> A_1  L_1       

 **************************************************************************

 **************************************************************************

                    xk=(   0.21250,   0.21250,   0.21250  )

     Band symmetry, C_3v (3m)   point group:

     e(  1 -  1) =     -8.10441  eV     1   --> A_1  L_1       
     e(  2 -  3) =     -8.06205  eV     2   --> E    L_3       
     e(  4 -  5) =     -7.99288  eV     2   --> E    L_3       
     e(  6 -  6) =     -5.50505  eV     1   --> A_1  L_1       
     e(  7 -  7) =      3.19466  eV     1   --> A_1  L_1       
     e(  8 -  9) =      6.16173  eV     2   --> E    L_3       
     e( 10 - 10) =      8.26520  eV     1   --> A_1  L_1       
     e( 11 - 12) =     11.19062  eV     2   --> E    L_3       
     e( 13 - 13) =     12.07366  eV     1   --> A_1  L_1       
     e( 14 - 15) =     15.71583  eV     2   --> E    L_3       
     e( 16 - 16) =     15.86442  eV     1   --> A_1  L_1       

 **************************************************************************

 **************************************************************************

                    xk=(   0.20000,   0.20000,   0.20000  )

     Band symmetry, C_3v (3m)   point group:

     e(  1 -  1) =     -8.10133  eV     1   --> A_1  L_1       
     e(  2 -  3) =     -8.06285  eV     2   --> E    L_3       
     e(  4 -  5) =     -7.99298  eV     2   --> E    L_3       
     e(  6 -  6) =     -5.56059  eV     1   --> A_1  L_1       
     e(  7 -  7) =      3.40989  eV     1   --> A_1  L_1       
     e(  8 -  9) =      6.20691  eV     2   --> E    L_3       
     e( 10 - 10) =      8.29478  eV     1   --> A_1  L_1       
     e( 11 - 12) =     11.14070  eV     2   --> E    L_3       
     e( 13 - 13) =     11.88059  eV     1   --> A_1  L_1       
     e( 14 - 15) =     15.72128  eV     2   --> E    L_3       
     e( 16 - 16) =     15.86817  eV     1   --> A_1  L_1       

 **************************************************************************

 **************************************************************************

                    xk=(   0.18750,   0.18750,   0.18750  )

     Band symmetry, C_3v (3m)   point group:

     e(  1 -  1) =     -8.09828  eV     1   --> A_1  L_1       
     e(  2 -  3) =     -8.06365  eV     2   --> E    L_3       
     e(  4 -  5) =     -7.99306  eV     2   --> E    L_3       
     e(  6 -  6) =     -5.61342  eV     1   --> A_1  L_1       
     e(  7 -  7) =      3.62785  eV     1   --> A_1  L_1       
     e(  8 -  9) =      6.25237  eV     2   --> E    L_3       
     e( 10 - 10) =      8.31961  eV     1   --> A_1  L_1       
     e( 11 - 12) =     11.08685  eV     2   --> E    L_3       
     e( 13 - 13) =     11.69359  eV     1   --> A_1  L_1       
     e( 14 - 15) =     15.74123  eV     2   --> E    L_3       
     e( 16 - 16) =     15.84546  eV     1   --> A_1  L_1       

 **************************************************************************

 **************************************************************************

                    xk=(   0.17500,   0.17500,   0.17500  )

     Band symmetry, C_3v (3m)   point group:

     e(  1 -  1) =     -8.09529  eV     1   --> A_1  L_1       
     e(  2 -  3) =     -8.06444  eV     2   --> E    L_3       
     e(  4 -  5) =     -7.99311  eV     2   --> E    L_3       
     e(  6 -  6) =     -5.66341  eV     1   --> A_1  L_1       
     e(  7 -  7) =      3.84820  eV     1   --> A_1  L_1       
     e(  8 -  9) =      6.29794  eV     2   --> E    L_3       
     e( 10 - 10) =      8.33805  eV     1   --> A_1  L_1       
     e( 11 - 12) =     11.02993  eV     2   --> E    L_3       
     e( 13 - 13) =     11.51416  eV     1   --> A_1  L_1       
     e( 14 - 15) =     15.77572  eV     2   --> E    L_3       
     e( 16 - 16) =     15.79160  eV     1   --> A_1  L_1       

 **************************************************************************

 **************************************************************************

                    xk=(   0.16250,   0.16250,   0.16250  )

     Band symmetry, C_3v (3m)   point group:

     e(  1 -  1) =     -8.09239  eV     1   --> A_1  L_1       
     e(  2 -  3) =     -8.06521  eV     2   --> E    L_3       
     e(  4 -  5) =     -7.99316  eV     2   --> E    L_3       
     e(  6 -  6) =     -5.71044  eV     1   --> A_1  L_1       
     e(  7 -  7) =      4.07051  eV     1   --> A_1  L_1       
     e(  8 -  9) =      6.34299  eV     2   --> E    L_3       
     e( 10 - 10) =      8.34812  eV     1   --> A_1  L_1       
     e( 11 - 12) =     10.97070  eV     2   --> E    L_3       
     e( 13 - 13) =     11.34393  eV     1   --> A_1  L_1       
     e( 14 - 14) =     15.70618  eV     1   --> A_1  L_1       
     e( 15 - 16) =     15.82237  eV     2   --> E    L_3       

 **************************************************************************

 **************************************************************************

                    xk=(   0.15000,   0.15000,   0.15000  )

     Band symmetry, C_3v (3m)   point group:

     e(  1 -  1) =     -8.08958  eV     1   --> A_1  L_1       
     e(  2 -  3) =     -8.06596  eV     2   --> E    L_3       
     e(  4 -  5) =     -7.99319  eV     2   --> E    L_3       
     e(  6 -  6) =     -5.75440  eV     1   --> A_1  L_1       
     e(  7 -  7) =      4.29444  eV     1   --> A_1  L_1       
     e(  8 -  9) =      6.38742  eV     2   --> E    L_3       
     e( 10 - 10) =      8.34761  eV     1   --> A_1  L_1       
     e( 11 - 12) =     10.91026  eV     2   --> E    L_3       
     e( 13 - 13) =     11.18485  eV     1   --> A_1  L_1       
     e( 14 - 14) =     15.59369  eV     1   --> A_1  L_1       
     e( 15 - 16) =     15.88171  eV     2   --> E    L_3       

 **************************************************************************

 **************************************************************************

                    xk=(   0.13750,   0.13750,   0.13750  )

     Band symmetry, C_3v (3m)   point group:

     e(  1 -  1) =     -8.08689  eV     1   --> A_1  L_1       
     e(  2 -  3) =     -8.06667  eV     2   --> E    L_3       
     e(  4 -  5) =     -7.99321  eV     2   --> E    L_3       
     e(  6 -  6) =     -5.79518  eV     1   --> A_1  L_1       
     e(  7 -  7) =      4.51958  eV     1   --> A_1  L_1       
     e(  8 -  9) =      6.43075  eV     2   --> E    L_3       
     e( 10 - 10) =      8.33405  eV     1   --> A_1  L_1       
     e( 11 - 12) =     10.84959  eV     2   --> E    L_3       
     e( 13 - 13) =     11.03893  eV     1   --> A_1  L_1       
     e( 14 - 14) =     15.46180  eV     1   --> A_1  L_1       
     e( 15 - 16) =     15.95182  eV     2   --> E    L_3       

 **************************************************************************

 **************************************************************************

                    xk=(   0.12500,   0.12500,   0.12500  )

     Band symmetry, C_3v (3m)   point group:

     e(  1 -  1) =     -8.08434  eV     1   --> A_1  L_1       
     e(  2 -  3) =     -8.06735  eV     2   --> E    L_3       
     e(  4 -  5) =     -7.99321  eV     2   --> E    L_3       
     e(  6 -  6) =     -5.83269  eV     1   --> A_1  L_1       
     e(  7 -  7) =      4.74546  eV     1   --> A_1  L_1       
     e(  8 -  9) =      6.47262  eV     2   --> E    L_3       
     e( 10 - 10) =      8.30498  eV     1   --> A_1  L_1       
     e( 11 - 12) =     10.78975  eV     2   --> E    L_3       
     e( 13 - 13) =     10.90821  eV     1   --> A_1  L_1       
     e( 14 - 14) =     15.31886  eV     1   --> A_1  L_1       
     e( 15 - 16) =     16.03225  eV     2   --> E    L_3       

 **************************************************************************

 **************************************************************************

                    xk=(   0.11250,   0.11250,   0.11250  )

     Band symmetry, C_3v (3m)   point group:

     e(  1 -  1) =     -8.08195  eV     1   --> A_1  L_1       
     e(  2 -  3) =     -8.06798  eV     2   --> E    L_3       
     e(  4 -  5) =     -7.99322  eV     2   --> E    L_3       
     e(  6 -  6) =     -5.86687  eV     1   --> A_1  L_1       
     e(  7 -  7) =      4.97158  eV     1   --> A_1  L_1       
     e(  8 -  9) =      6.51246  eV     2   --> E    L_3       
     e( 10 - 10) =      8.25815  eV     1   --> A_1  L_1       
     e( 11 - 12) =     10.73170  eV     2   --> E    L_3       
     e( 13 - 13) =     10.79438  eV     1   --> A_1  L_1       
     e( 14 - 14) =     15.17229  eV     1   --> A_1  L_1       
     e( 15 - 16) =     16.12103  eV     2   --> E    L_3       

 **************************************************************************

 **************************************************************************

                    xk=(   0.10000,   0.10000,   0.10000  )

     Band symmetry, C_3v (3m)   point group:

     e(  1 -  1) =     -8.07976  eV     1   --> A_1  L_1       
     e(  2 -  3) =     -8.06856  eV     2   --> E    L_3       
     e(  4 -  5) =     -7.99321  eV     2   --> E    L_3       
     e(  6 -  6) =     -5.89763  eV     1   --> A_1  L_1       
     e(  7 -  7) =      5.19723  eV     1   --> A_1  L_1       
     e(  8 -  9) =      6.55003  eV     2   --> E    L_3       
     e( 10 - 10) =      8.19190  eV     1   --> A_1  L_1       
     e( 11 - 12) =     10.67656  eV     2   --> E    L_3       
     e( 13 - 13) =     10.69841  eV     1   --> A_1  L_1       
     e( 14 - 14) =     15.02816  eV     1   --> A_1  L_1       
     e( 15 - 16) =     16.21805  eV     2   --> E    L_3       

 **************************************************************************

 **************************************************************************

                    xk=(   0.08750,   0.08750,   0.08750  )

     Band symmetry, C_3v (3m)   point group:

     e(  1 -  1) =     -8.07777  eV     1   --> A_1  L_1       
     e(  2 -  3) =     -8.06909  eV     2   --> E    L_3       
     e(  4 -  5) =     -7.99320  eV     2   --> E    L_3       
     e(  6 -  6) =     -5.92492  eV     1   --> A_1  L_1       
     e(  7 -  7) =      5.42182  eV     1   --> A_1  L_1       
     e(  8 -  9) =      6.58465  eV     2   --> E    L_3       
     e( 10 - 10) =      8.10553  eV     1   --> A_1  L_1       
     e( 11 - 11) =     10.62056  eV     1   --> A_1  L_1       
     e( 12 - 13) =     10.62521  eV     2   --> E    L_3       
     e( 14 - 14) =     14.89125  eV     1   --> A_1  L_1       
     e( 15 - 16) =     16.32021  eV     2   --> E    L_3       

 **************************************************************************

 **************************************************************************

                    xk=(   0.07500,   0.07500,   0.07500  )

     Band symmetry, C_3v (3m)   point group:

     e(  1 -  1) =     -8.07600  eV     1   --> A_1  L_1       
     e(  2 -  3) =     -8.06957  eV     2   --> E    L_3       
     e(  4 -  5) =     -7.99320  eV     2   --> E    L_3       
     e(  6 -  6) =     -5.94868  eV     1   --> A_1  L_1       
     e(  7 -  7) =      5.64445  eV     1   --> A_1  L_1       
     e(  8 -  9) =      6.61565  eV     2   --> E    L_3       
     e( 10 - 10) =      7.99948  eV     1   --> A_1  L_1       
     e( 11 - 11) =     10.55995  eV     1   --> A_1  L_1       
     e( 12 - 13) =     10.57854  eV     2   --> E    L_3       
     e( 14 - 14) =     14.76540  eV     1   --> A_1  L_1       
     e( 15 - 16) =     16.42598  eV     2   --> E    L_3       

 **************************************************************************

 **************************************************************************

                    xk=(   0.06250,   0.06250,   0.06250  )

     Band symmetry, C_3v (3m)   point group:

     e(  1 -  1) =     -8.07448  eV     1   --> A_1  L_1       
     e(  2 -  3) =     -8.06997  eV     2   --> E    L_3       
     e(  4 -  5) =     -7.99318  eV     2   --> E    L_3       
     e(  6 -  6) =     -5.96887  eV     1   --> A_1  L_1       
     e(  7 -  7) =      5.86395  eV     1   --> A_1  L_1       
     e(  8 -  9) =      6.64304  eV     2   --> E    L_3       
     e( 10 - 10) =      7.87536  eV     1   --> A_1  L_1       
     e( 11 - 11) =     10.51484  eV     1   --> A_1  L_1       
     e( 12 - 13) =     10.53749  eV     2   --> E    L_3       
     e( 14 - 14) =     14.65371  eV     1   --> A_1  L_1       
     e( 15 - 16) =     16.53313  eV     2   --> E    L_3       

 **************************************************************************

 **************************************************************************

                    xk=(   0.05000,   0.05000,   0.05000  )

     Band symmetry, C_3v (3m)   point group:

     e(  1 -  1) =     -8.07322  eV     1   --> A_1  L_1       
     e(  2 -  3) =     -8.07031  eV     2   --> E    L_3       
     e(  4 -  5) =     -7.99317  eV     2   --> E    L_3       
     e(  6 -  6) =     -5.98544  eV     1   --> A_1  L_1       
     e(  7 -  7) =      6.07862  eV     1   --> A_1  L_1       
     e(  8 -  9) =      6.66617  eV     2   --> E    L_3       
     e( 10 - 10) =      7.73603  eV     1   --> A_1  L_1       
     e( 11 - 11) =     10.48281  eV     1   --> A_1  L_1       
     e( 12 - 13) =     10.50278  eV     2   --> E    L_3       
     e( 14 - 14) =     14.55875  eV     1   --> A_1  L_1       
     e( 15 - 16) =     16.63761  eV     2   --> E    L_3       

 **************************************************************************

 **************************************************************************

                    xk=(   0.03750,   0.03750,   0.03750  )

     Band symmetry, C_3v (3m)   point group:

     e(  1 -  1) =     -8.07221  eV     1   --> A_1  L_1       
     e(  2 -  3) =     -8.07057  eV     2   --> E    L_3       
     e(  4 -  5) =     -7.99316  eV     2   --> E    L_3       
     e(  6 -  6) =     -5.99836  eV     1   --> A_1  L_1       
     e(  7 -  7) =      6.28550  eV     1   --> A_1  L_1       
     e(  8 -  9) =      6.68463  eV     2   --> E    L_3       
     e( 10 - 10) =      7.58593  eV     1   --> A_1  L_1       
     e( 11 - 11) =     10.46134  eV     1   --> A_1  L_1       
     e( 12 - 13) =     10.47507  eV     2   --> E    L_3       
     e( 14 - 14) =     14.48263  eV     1   --> A_1  L_1       
     e( 15 - 16) =     16.73356  eV     2   --> E    L_3       

 **************************************************************************

 **************************************************************************

                    xk=(   0.02500,   0.02500,   0.02500  )

     Band symmetry, C_3v (3m)   point group:

     e(  1 -  1) =     -8.07149  eV     1   --> A_1  L_1       
     e(  2 -  3) =     -8.07076  eV     2   --> E    L_3       
     e(  4 -  5) =     -7.99315  eV     2   --> E    L_3       
     e(  6 -  6) =     -6.00760  eV     1   --> A_1  L_1       
     e(  7 -  7) =      6.47780  eV     1   --> A_1  L_1       
     e(  8 -  9) =      6.69808  eV     2   --> E    L_3       
     e( 10 - 10) =      7.43293  eV     1   --> A_1  L_1       
     e( 11 - 11) =     10.44794  eV     1   --> A_1  L_1       
     e( 12 - 13) =     10.45488  eV     2   --> E    L_3       
     e( 14 - 14) =     14.42701  eV     1   --> A_1  L_1       
     e( 15 - 16) =     16.81325  eV     2   --> E    L_3       

 **************************************************************************

 **************************************************************************

                    xk=(   0.01250,   0.01250,   0.01250  )

     Band symmetry, C_3v (3m)   point group:

     e(  1 -  1) =     -8.07106  eV     1   --> A_1  L_1       
     e(  2 -  3) =     -8.07087  eV     2   --> E    L_3       
     e(  4 -  5) =     -7.99315  eV     2   --> E    L_3       
     e(  6 -  6) =     -6.01316  eV     1   --> A_1  L_1       
     e(  7 -  7) =      6.63722  eV     1   --> A_1  L_1       
     e(  8 -  9) =      6.70625  eV     2   --> E    L_3       
     e( 10 - 10) =      7.29671  eV     1   --> A_1  L_1       
     e( 11 - 11) =     10.44074  eV     1   --> A_1  L_1       
     e( 12 - 13) =     10.44260  eV     2   --> E    L_3       
     e( 14 - 14) =     14.39314  eV     1   --> A_1  L_1       
     e( 15 - 16) =     16.86721  eV     2   --> E    L_3       

 **************************************************************************

 **************************************************************************

                    xk=(   0.00000,   0.00000,   0.00000  )

     point group T_d (-43m) 
     there are  5 classes
     the character table:

       E     8C3   3C2   6S4   6s_d 
A_1    1.00  1.00  1.00  1.00  1.00
A_2    1.00  1.00  1.00 -1.00 -1.00
E      2.00 -1.00  2.00  0.00  0.00
T_1    3.00  0.00 -1.00  1.00 -1.00
T_2    3.00  0.00 -1.00 -1.00  1.00

     the symmetry operations in each class and the name of the first element:

     E        1
                                                                 
     8C3      5    7    8    6   12    9   10   11
                                                                 
     3C2      2    3    4
                                                                 
     6S4     15   16   20   19   23   24
                                                                 
     6s_d    13   14   17   18   21   22
                                                                 

     Band symmetry, T_d (-43m)  point group:

     e(  1 -  3) =     -8.07091  eV     3   --> T_2  G_15 P_4  
     e(  4 -  5) =     -7.99314  eV     2   --> E    G_12 P_3  
     e(  6 -  6) =     -6.01501  eV     1   --> A_1  G_1  P_1  
     e(  7 -  9) =      6.70899  eV     3   --> T_2  G_15 P_4  
     e( 10 - 10) =      7.23259  eV     1   --> A_1  G_1  P_1  
     e( 11 - 13) =     10.43848  eV     3   --> T_2  G_15 P_4  
     e( 14 - 14) =     14.38176  eV     1   --> A_1  G_1  P_1  
     e( 15 - 16) =     16.88648  eV     2   --> E    G_12 P_3  

 **************************************************************************

 **************************************************************************

                    xk=(   0.01667,   0.00000,   0.00000  )

     point group C_2v (mm2) 
     there are  4 classes
     the character table:

       E     C2    s_v   s_v' 
A_1    1.00  1.00  1.00  1.00
A_2    1.00  1.00 -1.00 -1.00
B_1    1.00 -1.00  1.00 -1.00
B_2    1.00 -1.00 -1.00  1.00

     the symmetry operations in each class and the name of the first element:

     E        1
                                                                 
     C2       2
                                                                 
     s_v      3
                                                                 
     s_v'     4
                                                                 

     Band symmetry, C_2v (mm2)  point group:

     e(  1 -  1) =     -8.07102  eV     1   --> A_1  D_1  S_1  
     e(  2 -  3) =     -8.07088  eV     2   --> B_1  D_3  S_3  
     e(  2 -  3) =     -8.07088  eV     2   --> B_2  D_4  S_4  
     e(  4 -  5) =     -7.99316  eV     2   --> A_1  D_1  S_1  
     e(  4 -  5) =     -7.99316  eV     2   --> A_2  D_2  S_2  
     e(  6 -  6) =     -6.01391  eV     1   --> A_1  D_1  S_1  
     e(  7 -  7) =      6.66861  eV     1   --> A_1  D_1  S_1  
     e(  8 -  9) =      6.70519  eV     2   --> B_1  D_3  S_3  
     e(  8 -  9) =      6.70519  eV     2   --> B_2  D_4  S_4  
     e( 10 - 10) =      7.27282  eV     1   --> A_1  D_1  S_1  
     e( 11 - 11) =     10.43431  eV     1   --> A_1  D_1  S_1  
     e( 12 - 13) =     10.44367  eV     2   --> B_1  D_3  S_3  
     e( 12 - 13) =     10.44367  eV     2   --> B_2  D_4  S_4  
     e( 14 - 14) =     14.38850  eV     1   --> A_1  D_1  S_1  
     e( 15 - 15) =     16.86242  eV     1   --> A_1  D_1  S_1  
     e( 16 - 16) =     16.88764  eV     1   --> A_2  D_2  S_2  

 **************************************************************************

 **************************************************************************

                    xk=(   0.03333,   0.00000,   0.00000  )

     Band symmetry, C_2v (mm2)  point group:

     e(  1 -  1) =     -8.07133  eV     1   --> A_1  D_1  S_1  
     e(  2 -  3) =     -8.07078  eV     2   --> B_1  D_3  S_3  
     e(  2 -  3) =     -8.07078  eV     2   --> B_2  D_4  S_4  
     e(  4 -  5) =     -7.99319  eV     2   --> A_1  D_1  S_1  
     e(  4 -  5) =     -7.99319  eV     2   --> A_2  D_2  S_2  
     e(  6 -  6) =     -6.01062  eV     1   --> A_1  D_1  S_1  
     e(  7 -  7) =      6.57123  eV     1   --> A_1  D_1  S_1  
     e(  8 -  9) =      6.69384  eV     2   --> B_1  D_3  S_3  
     e(  8 -  9) =      6.69384  eV     2   --> B_2  D_4  S_4  
     e( 10 - 10) =      7.36970  eV     1   --> A_1  D_1  S_1  
     e( 11 - 11) =     10.42189  eV     1   --> A_1  D_1  S_1  
     e( 12 - 13) =     10.45916  eV     2   --> B_1  D_3  S_3  
     e( 12 - 13) =     10.45916  eV     2   --> B_2  D_4  S_4  
     e( 14 - 14) =     14.40864  eV     1   --> A_1  D_1  S_1  
     e( 15 - 15) =     16.79416  eV     1   --> A_1  D_1  S_1  
     e( 16 - 16) =     16.89112  eV     1   --> A_2  D_2  S_2  

 **************************************************************************

 **************************************************************************

                    xk=(   0.05000,   0.00000,   0.00000  )

     Band symmetry, C_2v (mm2)  point group:

     e(  1 -  1) =     -8.07186  eV     1   --> A_1  D_1  S_1  
     e(  2 -  3) =     -8.07062  eV     2   --> B_1  D_3  S_3  
     e(  2 -  3) =     -8.07062  eV     2   --> B_2  D_4  S_4  
     e(  4 -  4) =     -7.99325  eV     1   --> A_1  D_1  S_1  
     e(  5 -  5) =     -7.99306  eV     1   --> A_2  D_2  S_2  
     e(  6 -  6) =     -6.00513  eV     1   --> A_1  D_1  S_1  
     e(  7 -  7) =      6.44784  eV     1   --> A_1  D_1  S_1  
     e(  8 -  9) =      6.67516  eV     2   --> B_1  D_3  S_3  
     e(  8 -  9) =      6.67516  eV     2   --> B_2  D_4  S_4  
     e( 10 - 10) =      7.49221  eV     1   --> A_1  D_1  S_1  
     e( 11 - 11) =     10.40153  eV     1   --> A_1  D_1  S_1  
     e( 12 - 13) =     10.48476  eV     2   --> B_1  D_3  S_3  
     e( 12 - 13) =     10.48476  eV     2   --> B_2  D_4  S_4  
     e( 14 - 14) =     14.44186  eV     1   --> A_1  D_1  S_1  
     e( 15 - 15) =     16.69088  eV     1   --> A_1  D_1  S_1  
     e( 16 - 16) =     16.89693  eV     1   --> A_2  D_2  S_2  

 **************************************************************************

 **************************************************************************

                    xk=(   0.06667,   0.00000,   0.00000  )

     Band symmetry, C_2v (mm2)  point group:

     e(  1 -  1) =     -8.07259  eV     1   --> A_1  D_1  S_1  
     e(  2 -  3) =     -8.07040  eV     2   --> B_1  D_3  S_3  
     e(  2 -  3) =     -8.07040  eV     2   --> B_2  D_4  S_4  
     e(  4 -  4) =     -7.99334  eV     1   --> A_1  D_1  S_1  
     e(  5 -  5) =     -7.99299  eV     1   --> A_2  D_2  S_2  
     e(  6 -  6) =     -5.99746  eV     1   --> A_1  D_1  S_1  
     e(  7 -  7) =      6.31301  eV     1   --> A_1  D_1  S_1  
     e(  8 -  9) =      6.64946  eV     2   --> B_1  D_3  S_3  
     e(  8 -  9) =      6.64946  eV     2   --> B_2  D_4  S_4  
     e( 10 - 10) =      7.62566  eV     1   --> A_1  D_1  S_1  
     e( 11 - 11) =     10.37367  eV     1   --> A_1  D_1  S_1  
     e( 12 - 13) =     10.52013  eV     2   --> B_1  D_3  S_3  
     e( 12 - 13) =     10.52013  eV     2   --> B_2  D_4  S_4  
     e( 14 - 14) =     14.48769  eV     1   --> A_1  D_1  S_1  
     e( 15 - 15) =     16.56257  eV     1   --> A_1  D_1  S_1  
     e( 16 - 16) =     16.90506  eV     1   --> A_2  D_2  S_2  

 **************************************************************************

 **************************************************************************

                    xk=(   0.08333,   0.00000,   0.00000  )

     Band symmetry, C_2v (mm2)  point group:

     e(  1 -  1) =     -8.07352  eV     1   --> A_1  D_1  S_1  
     e(  2 -  3) =     -8.07011  eV     2   --> B_1  D_3  S_3  
     e(  2 -  3) =     -8.07011  eV     2   --> B_2  D_4  S_4  
     e(  4 -  4) =     -7.99345  eV     1   --> A_1  D_1  S_1  
     e(  5 -  5) =     -7.99290  eV     1   --> A_2  D_2  S_2  
     e(  6 -  6) =     -5.98761  eV     1   --> A_1  D_1  S_1  
     e(  7 -  7) =      6.17269  eV     1   --> A_1  D_1  S_1  
     e(  8 -  9) =      6.61725  eV     2   --> B_1  D_3  S_3  
     e(  8 -  9) =      6.61725  eV     2   --> B_2  D_4  S_4  
     e( 10 - 10) =      7.76401  eV     1   --> A_1  D_1  S_1  
     e( 11 - 11) =     10.33892  eV     1   --> A_1  D_1  S_1  
     e( 12 - 13) =     10.56485  eV     2   --> B_1  D_3  S_3  
     e( 12 - 13) =     10.56485  eV     2   --> B_2  D_4  S_4  
     e( 14 - 14) =     14.54547  eV     1   --> A_1  D_1  S_1  
     e( 15 - 15) =     16.41760  eV     1   --> A_1  D_1  S_1  
     e( 16 - 16) =     16.91551  eV     1   --> A_2  D_2  S_2  

 **************************************************************************

 **************************************************************************

                    xk=(   0.10000,   0.00000,   0.00000  )

     Band symmetry, C_2v (mm2)  point group:

     e(  1 -  1) =     -8.07464  eV     1   --> A_1  D_1  S_1  
     e(  2 -  3) =     -8.06975  eV     2   --> B_1  D_3  S_3  
     e(  2 -  3) =     -8.06975  eV     2   --> B_2  D_4  S_4  
     e(  4 -  4) =     -7.99358  eV     1   --> A_1  D_1  S_1  
     e(  5 -  5) =     -7.99279  eV     1   --> A_2  D_2  S_2  
     e(  6 -  6) =     -5.97558  eV     1   --> A_1  D_1  S_1  
     e(  7 -  7) =      6.02944  eV     1   --> A_1  D_1  S_1  
     e(  8 -  9) =      6.57886  eV     2   --> B_1  D_3  S_3  
     e(  8 -  9) =      6.57886  eV     2   --> B_2  D_4  S_4  
     e( 10 - 10) =      7.90445  eV     1   --> A_1  D_1  S_1  
     e( 11 - 11) =     10.29799  eV     1   --> A_1  D_1  S_1  
     e( 12 - 13) =     10.61841  eV     2   --> B_1  D_3  S_3  
     e( 12 - 13) =     10.61841  eV     2   --> B_2  D_4  S_4  
     e( 14 - 14) =     14.61441  eV     1   --> A_1  D_1  S_1  
     e( 15 - 15) =     16.26256  eV     1   --> A_1  D_1  S_1  
     e( 16 - 16) =     16.92828  eV     1   --> A_2  D_2  S_2  

 **************************************************************************

 **************************************************************************

                    xk=(   0.11667,   0.00000,   0.00000  )

     Band symmetry, C_2v (mm2)  point group:

     e(  1 -  1) =     -8.07595  eV     1   --> A_1  D_1  S_1  
     e(  2 -  3) =     -8.06934  eV     2   --> B_1  D_3  S_3  
     e(  2 -  3) =     -8.06934  eV     2   --> B_2  D_4  S_4  
     e(  4 -  4) =     -7.99374  eV     1   --> A_1  D_1  S_1  
     e(  5 -  5) =     -7.99267  eV     1   --> A_2  D_2  S_2  
     e(  6 -  6) =     -5.96140  eV     1   --> A_1  D_1  S_1  
     e(  7 -  7) =      5.88461  eV     1   --> A_1  D_1  S_1  
     e(  8 -  9) =      6.53507  eV     2   --> B_1  D_3  S_3  
     e(  8 -  9) =      6.53507  eV     2   --> B_2  D_4  S_4  
     e( 10 - 10) =      8.04542  eV     1   --> A_1  D_1  S_1  
     e( 11 - 11) =     10.25167  eV     1   --> A_1  D_1  S_1  
     e( 12 - 13) =     10.68029  eV     2   --> B_1  D_3  S_3  
     e( 12 - 13) =     10.68029  eV     2   --> B_2  D_4  S_4  
     e( 14 - 14) =     14.69358  eV     1   --> A_1  D_1  S_1  
     e( 15 - 15) =     16.10110  eV     1   --> A_1  D_1  S_1  
     e( 16 - 16) =     16.94347  eV     1   --> A_2  D_2  S_2  

 **************************************************************************

 **************************************************************************

                    xk=(   0.13333,   0.00000,   0.00000  )

     Band symmetry, C_2v (mm2)  point group:

     e(  1 -  1) =     -8.07744  eV     1   --> A_1  D_1  S_1  
     e(  2 -  3) =     -8.06886  eV     2   --> B_1  D_3  S_3  
     e(  2 -  3) =     -8.06886  eV     2   --> B_2  D_4  S_4  
     e(  4 -  4) =     -7.99393  eV     1   --> A_1  D_1  S_1  
     e(  5 -  5) =     -7.99253  eV     1   --> A_2  D_2  S_2  
     e(  6 -  6) =     -5.94507  eV     1   --> A_1  D_1  S_1  
     e(  7 -  7) =      5.73900  eV     1   --> A_1  D_1  S_1  
     e(  8 -  9) =      6.48626  eV     2   --> B_1  D_3  S_3  
     e(  8 -  9) =      6.48626  eV     2   --> B_2  D_4  S_4  
     e( 10 - 10) =      8.18596  eV     1   --> A_1  D_1  S_1  
     e( 11 - 11) =     10.20080  eV     1   --> A_1  D_1  S_1  
     e( 12 - 13) =     10.74987  eV     2   --> B_1  D_3  S_3  
     e( 12 - 13) =     10.74987  eV     2   --> B_2  D_4  S_4  
     e( 14 - 14) =     14.78179  eV     1   --> A_1  D_1  S_1  
     e( 15 - 15) =     15.93711  eV     1   --> A_1  D_1  S_1  
     e( 16 - 16) =     16.96102  eV     1   --> A_2  D_2  S_2  

 **************************************************************************

 **************************************************************************

                    xk=(   0.15000,   0.00000,   0.00000  )

     Band symmetry, C_2v (mm2)  point group:

     e(  1 -  1) =     -8.07910  eV     1   --> A_1  D_1  S_1  
     e(  2 -  3) =     -8.06832  eV     2   --> B_1  D_3  S_3  
     e(  2 -  3) =     -8.06832  eV     2   --> B_2  D_4  S_4  
     e(  4 -  4) =     -7.99414  eV     1   --> A_1  D_1  S_1  
     e(  5 -  5) =     -7.99236  eV     1   --> A_2  D_2  S_2  
     e(  6 -  6) =     -5.92660  eV     1   --> A_1  D_1  S_1  
     e(  7 -  7) =      5.59287  eV     1   --> A_1  D_1  S_1  
     e(  8 -  9) =      6.43307  eV     2   --> B_1  D_3  S_3  
     e(  8 -  9) =      6.43307  eV     2   --> B_2  D_4  S_4  
     e( 10 - 10) =      8.32509  eV     1   --> A_1  D_1  S_1  
     e( 11 - 11) =     10.14623  eV     1   --> A_1  D_1  S_1  
     e( 12 - 13) =     10.82660  eV     2   --> B_1  D_3  S_3  
     e( 12 - 13) =     10.82660  eV     2   --> B_2  D_4  S_4  
     e( 14 - 14) =     14.87734  eV     1   --> A_1  D_1  S_1  
     e( 15 - 15) =     15.77394  eV     1   --> A_1  D_1  S_1  
     e( 16 - 16) =     16.98098  eV     1   --> A_2  D_2  S_2  

 **************************************************************************

 **************************************************************************

                    xk=(   0.16667,   0.00000,   0.00000  )

     Band symmetry, C_2v (mm2)  point group:

     e(  1 -  1) =     -8.08091  eV     1   --> A_1  D_1  S_1  
     e(  2 -  3) =     -8.06773  eV     2   --> B_1  D_3  S_3  
     e(  2 -  3) =     -8.06773  eV     2   --> B_2  D_4  S_4  
     e(  4 -  4) =     -7.99439  eV     1   --> A_1  D_1  S_1  
     e(  5 -  5) =     -7.99219  eV     1   --> A_2  D_2  S_2  
     e(  6 -  6) =     -5.90602  eV     1   --> A_1  D_1  S_1  
     e(  7 -  7) =      5.44657  eV     1   --> A_1  D_1  S_1  
     e(  8 -  9) =      6.37593  eV     2   --> B_1  D_3  S_3  
     e(  8 -  9) =      6.37593  eV     2   --> B_2  D_4  S_4  
     e( 10 - 10) =      8.46207  eV     1   --> A_1  D_1  S_1  
     e( 11 - 11) =     10.08890  eV     1   --> A_1  D_1  S_1  
     e( 12 - 13) =     10.90982  eV     2   --> B_1  D_3  S_3  
     e( 12 - 13) =     10.90982  eV     2   --> B_2  D_4  S_4  
     e( 14 - 14) =     14.97694  eV     1   --> A_1  D_1  S_1  
     e( 15 - 15) =     15.61596  eV     1   --> A_1  D_1  S_1  
     e( 16 - 16) =     17.00302  eV     1   --> A_2  D_2  S_2  

 **************************************************************************

 **************************************************************************

                    xk=(   0.18333,   0.00000,   0.00000  )

     Band symmetry, C_2v (mm2)  point group:

     e(  1 -  1) =     -8.08288  eV     1   --> A_1  D_1  S_1  
     e(  2 -  3) =     -8.06707  eV     2   --> B_1  D_3  S_3  
     e(  2 -  3) =     -8.06707  eV     2   --> B_2  D_4  S_4  
     e(  4 -  4) =     -7.99466  eV     1   --> A_1  D_1  S_1  
     e(  5 -  5) =     -7.99199  eV     1   --> A_2  D_2  S_2  
     e(  6 -  6) =     -5.88334  eV     1   --> A_1  D_1  S_1  
     e(  7 -  7) =      5.30031  eV     1   --> A_1  D_1  S_1  
     e(  8 -  9) =      6.31560  eV     2   --> B_1  D_3  S_3  
     e(  8 -  9) =      6.31560  eV     2   --> B_2  D_4  S_4  
     e( 10 - 10) =      8.59602  eV     1   --> A_1  D_1  S_1  
     e( 11 - 11) =     10.02981  eV     1   --> A_1  D_1  S_1  
     e( 12 - 13) =     10.99908  eV     2   --> B_1  D_3  S_3  
     e( 12 - 13) =     10.99908  eV     2   --> B_2  D_4  S_4  
     e( 14 - 14) =     15.07062  eV     1   --> A_1  D_1  S_1  
     e( 15 - 15) =     15.47403  eV     1   --> A_1  D_1  S_1  
     e( 16 - 16) =     17.02798  eV     1   --> A_2  D_2  S_2  

 **************************************************************************

 **************************************************************************

                    xk=(   0.20000,   0.00000,   0.00000  )

     Band symmetry, C_2v (mm2)  point group:

     e(  1 -  1) =     -8.08499  eV     1   --> A_1  D_1  S_1  
     e(  2 -  3) =     -8.06637  eV     2   --> B_1  D_3  S_3  
     e(  2 -  3) =     -8.06637  eV     2   --> B_2  D_4  S_4  
     e(  4 -  4) =     -7.99496  eV     1   --> A_1  D_1  S_1  
     e(  5 -  5) =     -7.99178  eV     1   --> A_2  D_2  S_2  
     e(  6 -  6) =     -5.85858  eV     1   --> A_1  D_1  S_1  
     e(  7 -  7) =      5.15422  eV     1   --> A_1  D_1  S_1  
     e(  8 -  9) =      6.25237  eV     2   --> B_1  D_3  S_3  
     e(  8 -  9) =      6.25237  eV     2   --> B_2  D_4  S_4  
     e( 10 - 10) =      8.72583  eV     1   --> A_1  D_1  S_1  
     e( 11 - 11) =      9.97008  eV     1   --> A_1  D_1  S_1  
     e( 12 - 13) =     11.09377  eV     2   --> B_1  D_3  S_3  
     e( 12 - 13) =     11.09377  eV     2   --> B_2  D_4  S_4  
     e( 14 - 14) =     15.11508  eV     1   --> A_1  D_1  S_1  
     e( 15 - 15) =     15.39210  eV     1   --> A_1  D_1  S_1  
     e( 16 - 16) =     17.05466  eV     1   --> A_2  D_2  S_2  

 **************************************************************************

 **************************************************************************

                    xk=(   0.21667,   0.00000,   0.00000  )

     Band symmetry, C_2v (mm2)  point group:

     e(  1 -  1) =     -8.08722  eV     1   --> A_1  D_1  S_1  
     e(  2 -  3) =     -8.06561  eV     2   --> B_1  D_3  S_3  
     e(  2 -  3) =     -8.06561  eV     2   --> B_2  D_4  S_4  
     e(  4 -  4) =     -7.99530  eV     1   --> A_1  D_1  S_1  
     e(  5 -  5) =     -7.99155  eV     1   --> A_2  D_2  S_2  
     e(  6 -  6) =     -5.83176  eV     1   --> A_1  D_1  S_1  
     e(  7 -  7) =      5.00839  eV     1   --> A_1  D_1  S_1  
     e(  8 -  9) =      6.18680  eV     2   --> B_1  D_3  S_3  
     e(  8 -  9) =      6.18680  eV     2   --> B_2  D_4  S_4  
     e( 10 - 10) =      8.85004  eV     1   --> A_1  D_1  S_1  
     e( 11 - 11) =      9.91116  eV     1   --> A_1  D_1  S_1  
     e( 12 - 13) =     11.19342  eV     2   --> B_1  D_3  S_3  
     e( 12 - 13) =     11.19342  eV     2   --> B_2  D_4  S_4  
     e( 14 - 14) =     15.04262  eV     1   --> A_1  D_1  S_1  
     e( 15 - 15) =     15.43776  eV     1   --> A_1  D_1  S_1  
     e( 16 - 16) =     17.08364  eV     1   --> A_2  D_2  S_2  

 **************************************************************************

 **************************************************************************

                    xk=(   0.23333,   0.00000,   0.00000  )

     Band symmetry, C_2v (mm2)  point group:

     e(  1 -  1) =     -8.08957  eV     1   --> A_1  D_1  S_1  
     e(  2 -  3) =     -8.06480  eV     2   --> B_1  D_3  S_3  
     e(  2 -  3) =     -8.06480  eV     2   --> B_2  D_4  S_4  
     e(  4 -  4) =     -7.99566  eV     1   --> A_1  D_1  S_1  
     e(  5 -  5) =     -7.99131  eV     1   --> A_2  D_2  S_2  
     e(  6 -  6) =     -5.80290  eV     1   --> A_1  D_1  S_1  
     e(  7 -  7) =      4.86291  eV     1   --> A_1  D_1  S_1  
     e(  8 -  9) =      6.11939  eV     2   --> B_1  D_3  S_3  
     e(  8 -  9) =      6.11939  eV     2   --> B_2  D_4  S_4  
     e( 10 - 10) =      8.96652  eV     1   --> A_1  D_1  S_1  
     e( 11 - 11) =      9.85502  eV     1   --> A_1  D_1  S_1  
     e( 12 - 13) =     11.29762  eV     2   --> B_1  D_3  S_3  
     e( 12 - 13) =     11.29762  eV     2   --> B_2  D_4  S_4  
     e( 14 - 14) =     14.91600  eV     1   --> A_1  D_1  S_1  
     e( 15 - 15) =     15.55023  eV     1   --> A_1  D_1  S_1  
     e( 16 - 16) =     17.11493  eV     1   --> A_2  D_2  S_2  

 **************************************************************************

 **************************************************************************

                    xk=(   0.25000,   0.00000,   0.00000  )

     Band symmetry, C_2v (mm2)  point group:

     e(  1 -  1) =     -8.09202  eV     1   --> A_1  D_1  S_1  
     e(  2 -  3) =     -8.06394  eV     2   --> B_1  D_3  S_3  
     e(  2 -  3) =     -8.06394  eV     2   --> B_2  D_4  S_4  
     e(  4 -  4) =     -7.99605  eV     1   --> A_1  D_1  S_1  
     e(  5 -  5) =     -7.99105  eV     1   --> A_2  D_2  S_2  
     e(  6 -  6) =     -5.77204  eV     1   --> A_1  D_1  S_1  
     e(  7 -  7) =      4.71784  eV     1   --> A_1  D_1  S_1  
     e(  8 -  9) =      6.05040  eV     2   --> B_1  D_3  S_3  
     e(  8 -  9) =      6.05040  eV     2   --> B_2  D_4  S_4  
     e( 10 - 10) =      9.07190  eV     1   --> A_1  D_1  S_1  
     e( 11 - 11) =      9.80476  eV     1   --> A_1  D_1  S_1  
     e( 12 - 13) =     11.40587  eV     2   --> B_1  D_3  S_3  
     e( 12 - 13) =     11.40587  eV     2   --> B_2  D_4  S_4  
     e( 14 - 14) =     14.78135  eV     1   --> A_1  D_1  S_1  
     e( 15 - 15) =     15.68306  eV     1   --> A_1  D_1  S_1  
     e( 16 - 16) =     17.14845  eV     1   --> A_2  D_2  S_2  

 **************************************************************************

 **************************************************************************

                    xk=(   0.26667,   0.00000,   0.00000  )

     Band symmetry, C_2v (mm2)  point group:

     e(  1 -  1) =     -8.09456  eV     1   --> A_1  D_1  S_1  
     e(  2 -  3) =     -8.06303  eV     2   --> B_1  D_3  S_3  
     e(  2 -  3) =     -8.06303  eV     2   --> B_2  D_4  S_4  
     e(  4 -  4) =     -7.99646  eV     1   --> A_1  D_1  S_1  
     e(  5 -  5) =     -7.99078  eV     1   --> A_2  D_2  S_2  
     e(  6 -  6) =     -5.73918  eV     1   --> A_1  D_1  S_1  
     e(  7 -  7) =      4.57330  eV     1   --> A_1  D_1  S_1  
     e(  8 -  9) =      5.98044  eV     2   --> B_1  D_3  S_3  
     e(  8 -  9) =      5.98044  eV     2   --> B_2  D_4  S_4  
     e( 10 - 10) =      9.16080  eV     1   --> A_1  D_1  S_1  
     e( 11 - 11) =      9.76542  eV     1   --> A_1  D_1  S_1  
     e( 12 - 13) =     11.51798  eV     2   --> B_1  D_3  S_3  
     e( 12 - 13) =     11.51798  eV     2   --> B_2  D_4  S_4  
     e( 14 - 14) =     14.65023  eV     1   --> A_1  D_1  S_1  
     e( 15 - 15) =     15.82585  eV     1   --> A_1  D_1  S_1  
     e( 16 - 16) =     17.18473  eV     1   --> A_2  D_2  S_2  

 **************************************************************************

 **************************************************************************

                    xk=(   0.28333,   0.00000,   0.00000  )

     Band symmetry, C_2v (mm2)  point group:

     e(  1 -  1) =     -8.09719  eV     1   --> A_1  D_1  S_1  
     e(  2 -  3) =     -8.06208  eV     2   --> B_1  D_3  S_3  
     e(  2 -  3) =     -8.06208  eV     2   --> B_2  D_4  S_4  
     e(  4 -  4) =     -7.99691  eV     1   --> A_1  D_1  S_1  
     e(  5 -  5) =     -7.99049  eV     1   --> A_2  D_2  S_2  
     e(  6 -  6) =     -5.70436  eV     1   --> A_1  D_1  S_1  
     e(  7 -  7) =      4.42921  eV     1   --> A_1  D_1  S_1  
     e(  8 -  9) =      5.90969  eV     2   --> B_1  D_3  S_3  
     e(  8 -  9) =      5.90969  eV     2   --> B_2  D_4  S_4  
     e( 10 - 10) =      9.22501  eV     1   --> A_1  D_1  S_1  
     e( 11 - 11) =      9.74458  eV     1   --> A_1  D_1  S_1  
     e( 12 - 13) =     11.63351  eV     2   --> B_1  D_3  S_3  
     e( 12 - 13) =     11.63351  eV     2   --> B_2  D_4  S_4  
     e( 14 - 14) =     14.52606  eV     1   --> A_1  D_1  S_1  
     e( 15 - 15) =     15.97543  eV     1   --> A_1  D_1  S_1  
     e( 16 - 16) =     17.22308  eV     1   --> A_2  D_2  S_2  

 **************************************************************************

 **************************************************************************

                    xk=(   0.30000,   0.00000,   0.00000  )

     Band symmetry, C_2v (mm2)  point group:

     e(  1 -  1) =     -8.09989  eV     1   --> A_1  D_1  S_1  
     e(  2 -  3) =     -8.06108  eV     2   --> B_1  D_3  S_3  
     e(  2 -  3) =     -8.06108  eV     2   --> B_2  D_4  S_4  
     e(  4 -  4) =     -7.99738  eV     1   --> A_1  D_1  S_1  
     e(  5 -  5) =     -7.99020  eV     1   --> A_2  D_2  S_2  
     e(  6 -  6) =     -5.66761  eV     1   --> A_1  D_1  S_1  
     e(  7 -  7) =      4.28566  eV     1   --> A_1  D_1  S_1  
     e(  8 -  9) =      5.83838  eV     2   --> B_1  D_3  S_3  
     e(  8 -  9) =      5.83838  eV     2   --> B_2  D_4  S_4  
     e( 10 - 10) =      9.25631  eV     1   --> A_1  D_1  S_1  
     e( 11 - 11) =      9.74982  eV     1   --> A_1  D_1  S_1  
     e( 12 - 13) =     11.75207  eV     2   --> B_1  D_3  S_3  
     e( 12 - 13) =     11.75207  eV     2   --> B_2  D_4  S_4  
     e( 14 - 14) =     14.41113  eV     1   --> A_1  D_1  S_1  
     e( 15 - 15) =     16.13040  eV     1   --> A_1  D_1  S_1  
     e( 16 - 16) =     17.26357  eV     1   --> A_2  D_2  S_2  

 **************************************************************************

 **************************************************************************

                    xk=(   0.31667,   0.00000,   0.00000  )

     Band symmetry, C_2v (mm2)  point group:

     e(  1 -  1) =     -8.10265  eV     1   --> A_1  D_1  S_1  
     e(  2 -  3) =     -8.06005  eV     2   --> B_1  D_3  S_3  
     e(  2 -  3) =     -8.06005  eV     2   --> B_2  D_4  S_4  
     e(  4 -  4) =     -7.99787  eV     1   --> A_1  D_1  S_1  
     e(  5 -  5) =     -7.98989  eV     1   --> A_2  D_2  S_2  
     e(  6 -  6) =     -5.62897  eV     1   --> A_1  D_1  S_1  
     e(  7 -  7) =      4.14262  eV     1   --> A_1  D_1  S_1  
     e(  8 -  9) =      5.76676  eV     2   --> B_1  D_3  S_3  
     e(  8 -  9) =      5.76676  eV     2   --> B_2  D_4  S_4  
     e( 10 - 10) =      9.25382  eV     1   --> A_1  D_1  S_1  
     e( 11 - 11) =      9.78118  eV     1   --> A_1  D_1  S_1  
     e( 12 - 13) =     11.87335  eV     2   --> B_1  D_3  S_3  
     e( 12 - 13) =     11.87335  eV     2   --> B_2  D_4  S_4  
     e( 14 - 14) =     14.30687  eV     1   --> A_1  D_1  S_1  
     e( 15 - 15) =     16.28995  eV     1   --> A_1  D_1  S_1  
     e( 16 - 16) =     17.30557  eV     1   --> A_2  D_2  S_2  

 **************************************************************************

 **************************************************************************

                    xk=(   0.33333,   0.00000,   0.00000  )

     Band symmetry, C_2v (mm2)  point group:

     e(  1 -  1) =     -8.10546  eV     1   --> A_1  D_1  S_1  
     e(  2 -  3) =     -8.05898  eV     2   --> B_1  D_3  S_3  
     e(  2 -  3) =     -8.05898  eV     2   --> B_2  D_4  S_4  
     e(  4 -  4) =     -7.99839  eV     1   --> A_1  D_1  S_1  
     e(  5 -  5) =     -7.98958  eV     1   --> A_2  D_2  S_2  
     e(  6 -  6) =     -5.58845  eV     1   --> A_1  D_1  S_1  
     e(  7 -  7) =      4.00023  eV     1   --> A_1  D_1  S_1  
     e(  8 -  9) =      5.69514  eV     2   --> B_1  D_3  S_3  
     e(  8 -  9) =      5.69514  eV     2   --> B_2  D_4  S_4  
     e( 10 - 10) =      9.22620  eV     1   --> A_1  D_1  S_1  
     e( 11 - 11) =      9.82930  eV     1   --> A_1  D_1  S_1  
     e( 12 - 13) =     11.99721  eV     2   --> B_1  D_3  S_3  
     e( 12 - 13) =     11.99721  eV     2   --> B_2  D_4  S_4  
     e( 14 - 14) =     14.21514  eV     1   --> A_1  D_1  S_1  
     e( 15 - 15) =     16.45349  eV     1   --> A_1  D_1  S_1  
     e( 16 - 16) =     17.35056  eV     1   --> A_2  D_2  S_2  

 **************************************************************************

 **************************************************************************

                    xk=(   0.35000,   0.00000,   0.00000  )

     Band symmetry, C_2v (mm2)  point group:

     e(  1 -  1) =     -8.10831  eV     1   --> A_1  D_1  S_1  
     e(  2 -  3) =     -8.05786  eV     2   --> B_1  D_3  S_3  
     e(  2 -  3) =     -8.05786  eV     2   --> B_2  D_4  S_4  
     e(  4 -  4) =     -7.99893  eV     1   --> A_1  D_1  S_1  
     e(  5 -  5) =     -7.98925  eV     1   --> A_2  D_2  S_2  
     e(  6 -  6) =     -5.54609  eV     1   --> A_1  D_1  S_1  
     e(  7 -  7) =      3.85854  eV     1   --> A_1  D_1  S_1  
     e(  8 -  9) =      5.62389  eV     2   --> B_1  D_3  S_3  
     e(  8 -  9) =      5.62389  eV     2   --> B_2  D_4  S_4  
     e( 10 - 10) =      9.18350  eV     1   --> A_1  D_1  S_1  
     e( 11 - 11) =      9.88318  eV     1   --> A_1  D_1  S_1  
     e( 12 - 13) =     12.12358  eV     2   --> B_1  D_3  S_3  
     e( 12 - 13) =     12.12358  eV     2   --> B_2  D_4  S_4  
     e( 14 - 14) =     14.13724  eV     1   --> A_1  D_1  S_1  
     e( 15 - 15) =     16.62057  eV     1   --> A_1  D_1  S_1  
     e( 16 - 16) =     17.39835  eV     1   --> A_2  D_2  S_2  

 **************************************************************************

 **************************************************************************

                    xk=(   0.36667,   0.00000,   0.00000  )

     Band symmetry, C_2v (mm2)  point group:

     e(  1 -  1) =     -8.11119  eV     1   --> A_1  D_1  S_1  
     e(  2 -  3) =     -8.05672  eV     2   --> B_1  D_3  S_3  
     e(  2 -  3) =     -8.05672  eV     2   --> B_2  D_4  S_4  
     e(  4 -  4) =     -7.99950  eV     1   --> A_1  D_1  S_1  
     e(  5 -  5) =     -7.98891  eV     1   --> A_2  D_2  S_2  
     e(  6 -  6) =     -5.50193  eV     1   --> A_1  D_1  S_1  
     e(  7 -  7) =      3.71751  eV     1   --> A_1  D_1  S_1  
     e(  8 -  9) =      5.55298  eV     2   --> B_1  D_3  S_3  
     e(  8 -  9) =      5.55298  eV     2   --> B_2  D_4  S_4  
     e( 10 - 10) =      9.13262  eV     1   --> A_1  D_1  S_1  
     e( 11 - 11) =      9.93501  eV     1   --> A_1  D_1  S_1  
     e( 12 - 13) =     12.25196  eV     2   --> B_1  D_3  S_3  
     e( 12 - 13) =     12.25196  eV     2   --> B_2  D_4  S_4  
     e( 14 - 14) =     14.07428  eV     1   --> A_1  D_1  S_1  
     e( 15 - 15) =     16.79078  eV     1   --> A_1  D_1  S_1  
     e( 16 - 16) =     17.44797  eV     1   --> A_2  D_2  S_2  

 **************************************************************************

 **************************************************************************

                    xk=(   0.38333,   0.00000,   0.00000  )

     Band symmetry, C_2v (mm2)  point group:

     e(  1 -  1) =     -8.11409  eV     1   --> A_1  D_1  S_1  
     e(  2 -  3) =     -8.05554  eV     2   --> B_1  D_3  S_3  
     e(  2 -  3) =     -8.05554  eV     2   --> B_2  D_4  S_4  
     e(  4 -  4) =     -8.00008  eV     1   --> A_1  D_1  S_1  
     e(  5 -  5) =     -7.98857  eV     1   --> A_2  D_2  S_2  
     e(  6 -  6) =     -5.45601  eV     1   --> A_1  D_1  S_1  
     e(  7 -  7) =      3.57720  eV     1   --> A_1  D_1  S_1  
     e(  8 -  9) =      5.48264  eV     2   --> B_1  D_3  S_3  
     e(  8 -  9) =      5.48264  eV     2   --> B_2  D_4  S_4  
     e( 10 - 10) =      9.07754  eV     1   --> A_1  D_1  S_1  
     e( 11 - 11) =      9.98007  eV     1   --> A_1  D_1  S_1  
     e( 12 - 13) =     12.38228  eV     2   --> B_1  D_3  S_3  
     e( 12 - 13) =     12.38228  eV     2   --> B_2  D_4  S_4  
     e( 14 - 14) =     14.02733  eV     1   --> A_1  D_1  S_1  
     e( 15 - 15) =     16.96373  eV     1   --> A_1  D_1  S_1  
     e( 16 - 16) =     17.49984  eV     1   --> A_2  D_2  S_2  

 **************************************************************************

 **************************************************************************

                    xk=(   0.40000,   0.00000,   0.00000  )

     Band symmetry, C_2v (mm2)  point group:

     e(  1 -  1) =     -8.11701  eV     1   --> A_1  D_1  S_1  
     e(  2 -  3) =     -8.05435  eV     2   --> B_1  D_3  S_3  
     e(  2 -  3) =     -8.05435  eV     2   --> B_2  D_4  S_4  
     e(  4 -  4) =     -8.00068  eV     1   --> A_1  D_1  S_1  
     e(  5 -  5) =     -7.98822  eV     1   --> A_2  D_2  S_2  
     e(  6 -  6) =     -5.40837  eV     1   --> A_1  D_1  S_1  
     e(  7 -  7) =      3.43755  eV     1   --> A_1  D_1  S_1  
     e(  8 -  9) =      5.41296  eV     2   --> B_1  D_3  S_3  
     e(  8 -  9) =      5.41296  eV     2   --> B_2  D_4  S_4  
     e( 10 - 10) =      9.02045  eV     1   --> A_1  D_1  S_1  
     e( 11 - 11) =     10.01555  eV     1   --> A_1  D_1  S_1  
     e( 12 - 13) =     12.51422  eV     2   --> B_1  D_3  S_3  
     e( 12 - 13) =     12.51422  eV     2   --> B_2  D_4  S_4  
     e( 14 - 14) =     13.99725  eV     1   --> A_1  D_1  S_1  
     e( 15 - 15) =     17.13910  eV     1   --> A_1  D_1  S_1  
     e( 16 - 16) =     17.55344  eV     1   --> A_2  D_2  S_2  

 **************************************************************************

 **************************************************************************

                    xk=(   0.41667,   0.00000,   0.00000  )

     Band symmetry, C_2v (mm2)  point group:

     e(  1 -  1) =     -8.11992  eV     1   --> A_1  D_1  S_1  
     e(  2 -  3) =     -8.05313  eV     2   --> B_1  D_3  S_3  
     e(  2 -  3) =     -8.05313  eV     2   --> B_2  D_4  S_4  
     e(  4 -  4) =     -8.00130  eV     1   --> A_1  D_1  S_1  
     e(  5 -  5) =     -7.98786  eV     1   --> A_2  D_2  S_2  
     e(  6 -  6) =     -5.35904  eV     1   --> A_1  D_1  S_1  
     e(  7 -  7) =      3.29880  eV     1   --> A_1  D_1  S_1  
     e(  8 -  9) =      5.34418  eV     2   --> B_1  D_3  S_3  
     e(  8 -  9) =      5.34418  eV     2   --> B_2  D_4  S_4  
     e( 10 - 10) =      8.96281  eV     1   --> A_1  D_1  S_1  
     e( 11 - 11) =     10.03978  eV     1   --> A_1  D_1  S_1  
     e( 12 - 13) =     12.64784  eV     2   --> B_1  D_3  S_3  
     e( 12 - 13) =     12.64784  eV     2   --> B_2  D_4  S_4  
     e( 14 - 14) =     13.98451  eV     1   --> A_1  D_1  S_1  
     e( 15 - 15) =     17.31649  eV     1   --> A_1  D_1  S_1  
     e( 16 - 16) =     17.60959  eV     1   --> A_2  D_2  S_2  

 **************************************************************************

 **************************************************************************

                    xk=(   0.43333,   0.00000,   0.00000  )

     Band symmetry, C_2v (mm2)  point group:

     e(  1 -  1) =     -8.12283  eV     1   --> A_1  D_1  S_1  
     e(  2 -  3) =     -8.05189  eV     2   --> B_1  D_3  S_3  
     e(  2 -  3) =     -8.05189  eV     2   --> B_2  D_4  S_4  
     e(  4 -  4) =     -8.00194  eV     1   --> A_1  D_1  S_1  
     e(  5 -  5) =     -7.98750  eV     1   --> A_2  D_2  S_2  
     e(  6 -  6) =     -5.30808  eV     1   --> A_1  D_1  S_1  
     e(  7 -  7) =      3.16086  eV     1   --> A_1  D_1  S_1  
     e(  8 -  9) =      5.27647  eV     2   --> B_1  D_3  S_3  
     e(  8 -  9) =      5.27647  eV     2   --> B_2  D_4  S_4  
     e( 10 - 10) =      8.90534  eV     1   --> A_1  D_1  S_1  
     e( 11 - 11) =     10.05195  eV     1   --> A_1  D_1  S_1  
     e( 12 - 13) =     12.78298  eV     2   --> B_1  D_3  S_3  
     e( 12 - 13) =     12.78298  eV     2   --> B_2  D_4  S_4  
     e( 14 - 14) =     13.98915  eV     1   --> A_1  D_1  S_1  
     e( 15 - 15) =     17.49554  eV     1   --> A_1  D_1  S_1  
     e( 16 - 16) =     17.66821  eV     1   --> A_2  D_2  S_2  

 **************************************************************************

 **************************************************************************

                    xk=(   0.45000,   0.00000,   0.00000  )

     Band symmetry, C_2v (mm2)  point group:

     e(  1 -  1) =     -8.12573  eV     1   --> A_1  D_1  S_1  
     e(  2 -  3) =     -8.05063  eV     2   --> B_1  D_3  S_3  
     e(  2 -  3) =     -8.05063  eV     2   --> B_2  D_4  S_4  
     e(  4 -  4) =     -8.00259  eV     1   --> A_1  D_1  S_1  
     e(  5 -  5) =     -7.98713  eV     1   --> A_2  D_2  S_2  
     e(  6 -  6) =     -5.25554  eV     1   --> A_1  D_1  S_1  
     e(  7 -  7) =      3.02378  eV     1   --> A_1  D_1  S_1  
     e(  8 -  9) =      5.20983  eV     2   --> B_1  D_3  S_3  
     e(  8 -  9) =      5.20983  eV     2   --> B_2  D_4  S_4  
     e( 10 - 10) =      8.84860  eV     1   --> A_1  D_1  S_1  
     e( 11 - 11) =     10.05183  eV     1   --> A_1  D_1  S_1  
     e( 12 - 13) =     12.91936  eV     2   --> B_1  D_3  S_3  
     e( 12 - 13) =     12.91936  eV     2   --> B_2  D_4  S_4  
     e( 14 - 14) =     14.01078  eV     1   --> A_1  D_1  S_1  
     e( 15 - 15) =     17.67588  eV     1   --> A_1  D_1  S_1  
     e( 16 - 16) =     17.72900  eV     1   --> A_2  D_2  S_2  

 **************************************************************************

 **************************************************************************

                    xk=(   0.46667,   0.00000,   0.00000  )

     Band symmetry, C_2v (mm2)  point group:

     e(  1 -  1) =     -8.12861  eV     1   --> A_1  D_1  S_1  
     e(  2 -  3) =     -8.04936  eV     2   --> B_1  D_3  S_3  
     e(  2 -  3) =     -8.04936  eV     2   --> B_2  D_4  S_4  
     e(  4 -  4) =     -8.00325  eV     1   --> A_1  D_1  S_1  
     e(  5 -  5) =     -7.98676  eV     1   --> A_2  D_2  S_2  
     e(  6 -  6) =     -5.20146  eV     1   --> A_1  D_1  S_1  
     e(  7 -  7) =      2.88763  eV     1   --> A_1  D_1  S_1  
     e(  8 -  9) =      5.14446  eV     2   --> B_1  D_3  S_3  
     e(  8 -  9) =      5.14446  eV     2   --> B_2  D_4  S_4  
     e( 10 - 10) =      8.79301  eV     1   --> A_1  D_1  S_1  
     e( 11 - 11) =     10.03992  eV     1   --> A_1  D_1  S_1  
     e( 12 - 13) =     13.05704  eV     2   --> B_1  D_3  S_3  
     e( 12 - 13) =     13.05704  eV     2   --> B_2  D_4  S_4  
     e( 14 - 14) =     14.04918  eV     1   --> A_1  D_1  S_1  
     e( 15 - 15) =     17.79205  eV     1   --> A_2  D_2  S_2  
     e( 16 - 16) =     17.85712  eV     1   --> A_1  D_1  S_1  

 **************************************************************************

 **************************************************************************

                    xk=(   0.48333,   0.00000,   0.00000  )

     Band symmetry, C_2v (mm2)  point group:

     e(  1 -  1) =     -8.13146  eV     1   --> A_1  D_1  S_1  
     e(  2 -  3) =     -8.04807  eV     2   --> B_1  D_3  S_3  
     e(  2 -  3) =     -8.04807  eV     2   --> B_2  D_4  S_4  
[...]

 **************************************************************************

                    xk=(   1.01167,  -0.83667,   0.83667  )

     Band symmetry, C_s (m)     point group:

     e(  1 -  1) =     -8.08670  eV     1   --> A'             
     e(  2 -  2) =     -8.06754  eV     1   --> A''            
     e(  3 -  3) =     -8.06540  eV     1   --> A'             
     e(  4 -  4) =     -7.99422  eV     1   --> A''            
     e(  5 -  5) =     -7.99235  eV     1   --> A'             
     e(  6 -  6) =     -5.80719  eV     1   --> A'             
     e(  7 -  7) =      4.69652  eV     1   --> A'             
     e(  8 -  8) =      6.05218  eV     1   --> A'             
     e(  9 -  9) =      6.59655  eV     1   --> A''            
     e( 10 - 10) =      8.57908  eV     1   --> A'             
     e( 11 - 11) =     10.53572  eV     1   --> A'             
     e( 12 - 12) =     10.64598  eV     1   --> A''            
     e( 13 - 13) =     11.36081  eV     1   --> A'             
     e( 14 - 14) =     15.44863  eV     1   --> A'             
     e( 15 - 15) =     15.57710  eV     1   --> A''            
     e( 16 - 16) =     16.22845  eV     1   --> A'             

 **************************************************************************

 **************************************************************************

                    xk=(   1.01083,  -0.84833,   0.84833  )

     Band symmetry, C_s (m)     point group:

     e(  1 -  1) =     -8.08472  eV     1   --> A'             
     e(  2 -  2) =     -8.06799  eV     1   --> A''            
     e(  3 -  3) =     -8.06608  eV     1   --> A'             
     e(  4 -  4) =     -7.99409  eV     1   --> A''            
     e(  5 -  5) =     -7.99245  eV     1   --> A'             
     e(  6 -  6) =     -5.83539  eV     1   --> A'             
     e(  7 -  7) =      4.85548  eV     1   --> A'             
     e(  8 -  8) =      6.13473  eV     1   --> A'             
     e(  9 -  9) =      6.61291  eV     1   --> A''            
     e( 10 - 10) =      8.50697  eV     1   --> A'             
     e( 11 - 11) =     10.51405  eV     1   --> A'             
     e( 12 - 12) =     10.61749  eV     1   --> A''            
     e( 13 - 13) =     11.24887  eV     1   --> A'             
     e( 14 - 14) =     15.32635  eV     1   --> A'             
     e( 15 - 15) =     15.67407  eV     1   --> A''            
     e( 16 - 16) =     16.28089  eV     1   --> A'             

 **************************************************************************

 **************************************************************************

                    xk=(   1.01000,  -0.86000,   0.86000  )

     Band symmetry, C_s (m)     point group:

     e(  1 -  1) =     -8.08283  eV     1   --> A'             
     e(  2 -  2) =     -8.06841  eV     1   --> A''            
     e(  3 -  3) =     -8.06673  eV     1   --> A'             
     e(  4 -  4) =     -7.99396  eV     1   --> A''            
     e(  5 -  5) =     -7.99255  eV     1   --> A'             
     e(  6 -  6) =     -5.86162  eV     1   --> A'             
     e(  7 -  7) =      5.01538  eV     1   --> A'             
     e(  8 -  8) =      6.21335  eV     1   --> A'             
     e(  9 -  9) =      6.62782  eV     1   --> A''            
     e( 10 - 10) =      8.42964  eV     1   --> A'             
     e( 11 - 11) =     10.49564  eV     1   --> A'             
     e( 12 - 12) =     10.59108  eV     1   --> A''            
     e( 13 - 13) =     11.13991  eV     1   --> A'             
     e( 14 - 14) =     15.20630  eV     1   --> A'             
     e( 15 - 15) =     15.77537  eV     1   --> A''            
     e( 16 - 16) =     16.33985  eV     1   --> A'             

 **************************************************************************

 **************************************************************************

                    xk=(   1.00917,  -0.87167,   0.87167  )

     Band symmetry, C_s (m)     point group:

     e(  1 -  1) =     -8.08105  eV     1   --> A'             
     e(  2 -  2) =     -8.06881  eV     1   --> A''            
     e(  3 -  3) =     -8.06734  eV     1   --> A'             
     e(  4 -  4) =     -7.99384  eV     1   --> A''            
     e(  5 -  5) =     -7.99264  eV     1   --> A'             
     e(  6 -  6) =     -5.88585  eV     1   --> A'             
     e(  7 -  7) =      5.17598  eV     1   --> A'             
     e(  8 -  8) =      6.28748  eV     1   --> A'             
     e(  9 -  9) =      6.64131  eV     1   --> A''            
     e( 10 - 10) =      8.34664  eV     1   --> A'             
     e( 11 - 11) =     10.48031  eV     1   --> A'             
     e( 12 - 12) =     10.56676  eV     1   --> A''            
     e( 13 - 13) =     11.03543  eV     1   --> A'             
     e( 14 - 14) =     15.09018  eV     1   --> A'             
     e( 15 - 15) =     15.88038  eV     1   --> A''            
     e( 16 - 16) =     16.40294  eV     1   --> A'             

 **************************************************************************

 **************************************************************************

                    xk=(   1.00833,  -0.88333,   0.88333  )

     Band symmetry, C_s (m)     point group:

     e(  1 -  1) =     -8.07939  eV     1   --> A'             
     e(  2 -  2) =     -8.06917  eV     1   --> A''            
     e(  3 -  3) =     -8.06792  eV     1   --> A'             
     e(  4 -  4) =     -7.99373  eV     1   --> A''            
     e(  5 -  5) =     -7.99273  eV     1   --> A'             
     e(  6 -  6) =     -5.90807  eV     1   --> A'             
     e(  7 -  7) =      5.33702  eV     1   --> A'             
     e(  8 -  8) =      6.35678  eV     1   --> A'             
     e(  9 -  9) =      6.65345  eV     1   --> A''            
     e( 10 - 10) =      8.25761  eV     1   --> A'             
     e( 11 - 11) =     10.46788  eV     1   --> A'             
     e( 12 - 12) =     10.54454  eV     1   --> A''            
     e( 13 - 13) =     10.93679  eV     1   --> A'             
     e( 14 - 14) =     14.97937  eV     1   --> A'             
     e( 15 - 15) =     15.98882  eV     1   --> A''            
     e( 16 - 16) =     16.46797  eV     1   --> A'             

 **************************************************************************

 **************************************************************************

                    xk=(   1.00750,  -0.89500,   0.89500  )

     Band symmetry, C_s (m)     point group:

     e(  1 -  1) =     -8.07785  eV     1   --> A'             
     e(  2 -  2) =     -8.06950  eV     1   --> A''            
     e(  3 -  3) =     -8.06846  eV     1   --> A'             
     e(  4 -  4) =     -7.99363  eV     1   --> A''            
     e(  5 -  5) =     -7.99281  eV     1   --> A'             
     e(  6 -  6) =     -5.92824  eV     1   --> A'             
     e(  7 -  7) =      5.49816  eV     1   --> A'             
     e(  8 -  8) =      6.42084  eV     1   --> A'             
     e(  9 -  9) =      6.66428  eV     1   --> A''            
     e( 10 - 10) =      8.16233  eV     1   --> A'             
     e( 11 - 11) =     10.45813  eV     1   --> A'             
     e( 12 - 12) =     10.52441  eV     1   --> A''            
     e( 13 - 13) =     10.84517  eV     1   --> A'             
     e( 14 - 14) =     14.87504  eV     1   --> A'             
     e( 15 - 15) =     16.09959  eV     1   --> A''            
     e( 16 - 16) =     16.53309  eV     1   --> A'             

 **************************************************************************

 **************************************************************************

                    xk=(   1.00667,  -0.90667,   0.90667  )

     Band symmetry, C_s (m)     point group:

     e(  1 -  1) =     -8.07645  eV     1   --> A'             
     e(  2 -  2) =     -8.06979  eV     1   --> A''            
     e(  3 -  3) =     -8.06895  eV     1   --> A'             
     e(  4 -  4) =     -7.99353  eV     1   --> A''            
     e(  5 -  5) =     -7.99287  eV     1   --> A'             
     e(  6 -  6) =     -5.94635  eV     1   --> A'             
     e(  7 -  7) =      5.65903  eV     1   --> A'             
     e(  8 -  8) =      6.47929  eV     1   --> A'             
     e(  9 -  9) =      6.67386  eV     1   --> A''            
     e( 10 - 10) =      8.06075  eV     1   --> A'             
     e( 11 - 11) =     10.45079  eV     1   --> A'             
     e( 12 - 12) =     10.50639  eV     1   --> A''            
     e( 13 - 13) =     10.76156  eV     1   --> A'             
     e( 14 - 14) =     14.77827  eV     1   --> A'             
     e( 15 - 15) =     16.21268  eV     1   --> A''            
     e( 16 - 16) =     16.59688  eV     1   --> A'             

 **************************************************************************

 **************************************************************************

                    xk=(   1.00583,  -0.91833,   0.91833  )

     Band symmetry, C_s (m)     point group:

     e(  1 -  1) =     -8.07519  eV     1   --> A'             
     e(  2 -  2) =     -8.07005  eV     1   --> A''            
     e(  3 -  3) =     -8.06940  eV     1   --> A'             
     e(  4 -  4) =     -7.99345  eV     1   --> A''            
     e(  5 -  5) =     -7.99294  eV     1   --> A'             
     e(  6 -  6) =     -5.96237  eV     1   --> A'             
     e(  7 -  7) =      5.81916  eV     1   --> A'             
     e(  8 -  8) =      6.53174  eV     1   --> A'             
     e(  9 -  9) =      6.68224  eV     1   --> A''            
     e( 10 - 10) =      7.95309  eV     1   --> A'             
     e( 11 - 11) =     10.44555  eV     1   --> A'             
     e( 12 - 12) =     10.49049  eV     1   --> A''            
     e( 13 - 13) =     10.68674  eV     1   --> A'             
     e( 14 - 14) =     14.69007  eV     1   --> A'             
     e( 15 - 15) =     16.32619  eV     1   --> A''            
     e( 16 - 16) =     16.65740  eV     1   --> A'             

 **************************************************************************

 **************************************************************************

                    xk=(   1.00500,  -0.93000,   0.93000  )

     Band symmetry, C_s (m)     point group:

     e(  1 -  1) =     -8.07407  eV     1   --> A'             
     e(  2 -  2) =     -8.07028  eV     1   --> A''            
     e(  3 -  3) =     -8.06979  eV     1   --> A'             
     e(  4 -  4) =     -7.99337  eV     1   --> A''            
     e(  5 -  5) =     -7.99299  eV     1   --> A'             
     e(  6 -  6) =     -5.97629  eV     1   --> A'             
     e(  7 -  7) =      5.97784  eV     1   --> A'             
     e(  8 -  8) =      6.57776  eV     1   --> A'             
     e(  9 -  9) =      6.68944  eV     1   --> A''            
     e( 10 - 10) =      7.83982  eV     1   --> A'             
     e( 11 - 11) =     10.44206  eV     1   --> A'             
     e( 12 - 12) =     10.47670  eV     1   --> A''            
     e( 13 - 13) =     10.62125  eV     1   --> A'             
     e( 14 - 14) =     14.61140  eV     1   --> A'             
     e( 15 - 15) =     16.43950  eV     1   --> A''            
     e( 16 - 16) =     16.71334  eV     1   --> A'             

 **************************************************************************

 **************************************************************************

                    xk=(   1.00417,  -0.94167,   0.94167  )

     Band symmetry, C_s (m)     point group:

     e(  1 -  1) =     -8.07312  eV     1   --> A'             
     e(  2 -  2) =     -8.07047  eV     1   --> A''            
     e(  3 -  3) =     -8.07013  eV     1   --> A'             
     e(  4 -  4) =     -7.99330  eV     1   --> A''            
     e(  5 -  5) =     -7.99304  eV     1   --> A'             
     e(  6 -  6) =     -5.98810  eV     1   --> A'             
     e(  7 -  7) =      6.13402  eV     1   --> A'             
     e(  8 -  8) =      6.61733  eV     1   --> A'             
     e(  9 -  9) =      6.69548  eV     1   --> A''            
     e( 10 - 10) =      7.72184  eV     1   --> A'             
     e( 11 - 11) =     10.43996  eV     1   --> A'             
     e( 12 - 12) =     10.46503  eV     1   --> A''            
     e( 13 - 13) =     10.56554  eV     1   --> A'             
     e( 14 - 14) =     14.54313  eV     1   --> A'             
     e( 15 - 15) =     16.54948  eV     1   --> A''            
     e( 16 - 16) =     16.76338  eV     1   --> A'             

 **************************************************************************

 **************************************************************************

                    xk=(   1.00333,  -0.95333,   0.95333  )

     Band symmetry, C_s (m)     point group:

     e(  1 -  1) =     -8.07234  eV     1   --> A'             
     e(  2 -  2) =     -8.07063  eV     1   --> A''            
     e(  3 -  3) =     -8.07041  eV     1   --> A'             
     e(  4 -  4) =     -7.99324  eV     1   --> A''            
     e(  5 -  5) =     -7.99308  eV     1   --> A'             
     e(  6 -  6) =     -5.99777  eV     1   --> A'             
     e(  7 -  7) =      6.28610  eV     1   --> A'             
     e(  8 -  8) =      6.64999  eV     1   --> A'             
     e(  9 -  9) =      6.70037  eV     1   --> A''            
     e( 10 - 10) =      7.60078  eV     1   --> A'             
     e( 11 - 11) =     10.43886  eV     1   --> A'             
     e( 12 - 12) =     10.45547  eV     1   --> A''            
     e( 13 - 13) =     10.51982  eV     1   --> A'             
     e( 14 - 14) =     14.48606  eV     1   --> A'             
     e( 15 - 15) =     16.65289  eV     1   --> A''            
     e( 16 - 16) =     16.80617  eV     1   --> A'             

 **************************************************************************

 **************************************************************************

                    xk=(   1.00250,  -0.96500,   0.96500  )

     Band symmetry, C_s (m)     point group:

     e(  1 -  1) =     -8.07172  eV     1   --> A'             
     e(  2 -  2) =     -8.07075  eV     1   --> A''            
     e(  3 -  3) =     -8.07063  eV     1   --> A'             
     e(  4 -  5) =     -7.99320  eV     2   --> A'             
     e(  4 -  5) =     -7.99320  eV     2   --> A''            
     e(  6 -  6) =     -6.00531  eV     1   --> A'             
     e(  7 -  7) =      6.43121  eV     1   --> A'             
     e(  8 -  8) =      6.67568  eV     1   --> A'             
     e(  9 -  9) =      6.70416  eV     1   --> A''            
     e( 10 - 10) =      7.47971  eV     1   --> A'             
     e( 11 - 11) =     10.43844  eV     1   --> A'             
     e( 12 - 12) =     10.44804  eV     1   --> A''            
     e( 13 - 13) =     10.48423  eV     1   --> A'             
     e( 14 - 14) =     14.44088  eV     1   --> A'             
     e( 15 - 15) =     16.74511  eV     1   --> A''            
     e( 16 - 16) =     16.84064  eV     1   --> A'             

 **************************************************************************

 **************************************************************************

                    xk=(   1.00167,  -0.97667,   0.97667  )

     Band symmetry, C_s (m)     point group:

     e(  1 -  1) =     -8.07127  eV     1   --> A'             
     e(  2 -  3) =     -8.07084  eV     2   --> A'             
     e(  2 -  3) =     -8.07084  eV     2   --> A''            
     e(  4 -  5) =     -7.99317  eV     2   --> A'             
     e(  4 -  5) =     -7.99317  eV     2   --> A''            
     e(  6 -  6) =     -6.01070  eV     1   --> A'             
     e(  7 -  7) =      6.56299  eV     1   --> A'             
     e(  8 -  8) =      6.69415  eV     1   --> A'             
     e(  9 -  9) =      6.70685  eV     1   --> A''            
     e( 10 - 10) =      7.36501  eV     1   --> A'             
     e( 11 - 11) =     10.43838  eV     1   --> A'             
     e( 12 - 12) =     10.44273  eV     1   --> A''            
     e( 13 - 13) =     10.45881  eV     1   --> A'             
     e( 14 - 14) =     14.40818  eV     1   --> A'             
     e( 15 - 15) =     16.81970  eV     1   --> A''            
     e( 16 - 16) =     16.86589  eV     1   --> A'             

 **************************************************************************

 **************************************************************************

                    xk=(   1.00083,  -0.98833,   0.98833  )

     Band symmetry, C_s (m)     point group:

     e(  1 -  1) =     -8.07100  eV     1   --> A'             
     e(  2 -  3) =     -8.07089  eV     2   --> A'             
     e(  2 -  3) =     -8.07089  eV     2   --> A''            
     e(  4 -  5) =     -7.99315  eV     2   --> A'             
     e(  4 -  5) =     -7.99315  eV     2   --> A''            
     e(  6 -  6) =     -6.01393  eV     1   --> A'             
     e(  7 -  7) =      6.66629  eV     1   --> A'             
     e(  8 -  8) =      6.70528  eV     1   --> A'             
     e(  9 -  9) =      6.70846  eV     1   --> A''            
     e( 10 - 10) =      7.27191  eV     1   --> A'             
     e( 11 - 11) =     10.43844  eV     1   --> A'             
     e( 12 - 12) =     10.43954  eV     1   --> A''            
     e( 13 - 13) =     10.44356  eV     1   --> A'             
     e( 14 - 14) =     14.38839  eV     1   --> A'             
     e( 15 - 15) =     16.86908  eV     1   --> A''            
     e( 16 - 16) =     16.88130  eV     1   --> A'             

 **************************************************************************

 **************************************************************************

                    xk=(   1.00000,  -1.00000,   1.00000  )

     point group T_d (-43m) 
     there are  5 classes
     the character table:

       E     8C3   3C2   6S4   6s_d 
A_1    1.00  1.00  1.00  1.00  1.00
A_2    1.00  1.00  1.00 -1.00 -1.00
E      2.00 -1.00  2.00  0.00  0.00
T_1    3.00  0.00 -1.00  1.00 -1.00
T_2    3.00  0.00 -1.00 -1.00  1.00

     the symmetry operations in each class and the name of the first element:

     E        1
                                                                 
     8C3      5    7    8    6   12    9   10   11
                                                                 
     3C2      2    3    4
                                                                 
     6S4     15   16   20   19   23   24
                                                                 
     6s_d    13   14   17   18   21   22
                                                                 

     Band symmetry, T_d (-43m)  point group:

     e(  1 -  3) =     -8.07091  eV     3   --> T_2  G_15 P_4  
     e(  4 -  5) =     -7.99314  eV     2   --> E    G_12 P_3  
     e(  6 -  6) =     -6.01501  eV     1   --> A_1  G_1  P_1  
     e(  7 -  9) =      6.70899  eV     3   --> T_2  G_15 P_4  
     e( 10 - 10) =      7.23259  eV     1   --> A_1  G_1  P_1  
     e( 11 - 13) =     10.43848  eV     3   --> T_2  G_15 P_4  
     e( 14 - 14) =     14.38176  eV     1   --> A_1  G_1  P_1  
     e( 15 - 16) =     16.88648  eV     2   --> E    G_12 P_3  

 **************************************************************************

     BANDS        :      6.74s CPU      7.34s WALL


   This run was terminated on:  14:36:25  19Oct2023            

=------------------------------------------------------------------------------=
   JOB DONE.
=------------------------------------------------------------------------------=
