
     Program PWSCF v.7.2 starts on 11Oct2023 at 10:58:16 

     This program is part of the open-source Quantum ESPRESSO suite
     for quantum simulation of materials; please cite
         "P. Giannozzi et al., J. Phys.:Condens. Matter 21 395502 (2009);
         "P. Giannozzi et al., J. Phys.:Condens. Matter 29 465901 (2017);
         "P. Giannozzi et al., J. Chem. Phys. 152 154105 (2020);
          URL http://www.quantum-espresso.org", 
     in publications or presentations arising from this work. More details at
     http://www.quantum-espresso.org/quote

     Parallel version (MPI), running on     6 processors

     MPI processes distributed on     1 nodes
     4523 MiB available memory on the printing compute node when the environment starts

     Reading input from bands.in

     Current dimensions of program PWSCF are:
     Max number of different atomic species (ntypx) = 10
     Max number of k-points (npk) =  40000
     Max angular momentum in pseudopotentials (lmaxx) =  4

     Atomic positions and unit cell read from directory:
     ./TMD.save/
     Atomic positions from file used, from input discarded

Error reading attribute index: expected integer, found *
     Message from routine setup:
     using ibrav=0 with symmetry is DISCOURAGED, use correct ibrav instead

     R & G space division:  proc/nbgrp/npool/nimage =       6
     Subspace diagonalization in iterative solution of the eigenvalue problem:
     a serial algorithm will be used


     Parallelization info
     --------------------
     sticks:   dense  smooth     PW     G-vecs:    dense   smooth      PW
     Min          65      65     20                 7777     7777    1338
     Max          67      67     21                 7793     7793    1367
     Sum         397     397    121                46701    46701    8077

     Using Slab Decomposition



     bravais-lattice index     =            0
     lattice parameter (alat)  =       6.0157  a.u.
     unit-cell volume          =    1370.5212 (a.u.)^3
     number of atoms/cell      =            3
     number of atomic types    =            2
     number of electrons       =        26.00
     number of Kohn-Sham states=           72
     kinetic-energy cutoff     =      40.0000  Ry
     charge density cutoff     =     160.0000  Ry
     Exchange-correlation= PBE
                           (   1   4   3   4   0   0   0)
     Non magnetic calculation with spin-orbit


     celldm(1)=   6.015677  celldm(2)=   0.000000  celldm(3)=   0.000000
     celldm(4)=   0.000000  celldm(5)=   0.000000  celldm(6)=   0.000000

     crystal axes: (cart. coord. in units of alat)
               a(1) = (   1.000000   0.000000   0.000000 )  
               a(2) = (  -0.500000   0.866025   0.000000 )  
               a(3) = (   0.000000   0.000000   7.269451 )  

     reciprocal axes: (cart. coord. in units 2 pi/alat)
               b(1) = (  1.000000  0.577350 -0.000000 )  
               b(2) = (  0.000000  1.154701  0.000000 )  
               b(3) = (  0.000000 -0.000000  0.137562 )  


     PseudoPot. # 1 for Mo read from file:
     ../pseudo/SG15/Mo_ONCV_PBE_FR-1.0.upf
     MD5 check sum: 05288ac22f87858946b79311c37e479e
     Pseudo is Norm-conserving, Zval = 14.0
     Generated using ONCVPSP code by D. R. Hamann
     Using radial grid of  602 points, 10 beta functions with: 
                l(1) =   0
                l(2) =   0
                l(3) =   1
                l(4) =   1
                l(5) =   1
                l(6) =   1
                l(7) =   2
                l(8) =   2
                l(9) =   2
               l(10) =   2

     PseudoPot. # 2 for S  read from file:
     ../pseudo/SG15/S_ONCV_PBE_FR-1.1.upf
     MD5 check sum: 520a35214b8921ef5a3e305e16abb38a
     Pseudo is Norm-conserving, Zval =  6.0
     Generated using ONCVPSP code by D. R. Hamann
     Using radial grid of  602 points,  6 beta functions with: 
                l(1) =   0
                l(2) =   0
                l(3) =   1
                l(4) =   1
                l(5) =   1
                l(6) =   1

     atomic species   valence    mass     pseudopotential
        Mo            14.00    95.94000     Mo( 1.00)
        S              6.00    32.05900     S ( 1.00)

     12 Sym. Ops. (no inversion) found


                                    s                        frac. trans.

      isym =  1     identity                                     

 cryst.   s( 1) = (     1          0          0      )
                  (     0          1          0      )
                  (     0          0          1      )

 cart.    s( 1) = (  1.0000000  0.0000000  0.0000000 )
                  (  0.0000000  1.0000000  0.0000000 )
                  (  0.0000000  0.0000000  1.0000000 )


      isym =  2     180 deg rotation - cart. axis [0,1,0]        

 cryst.   s( 2) = (    -1          0          0      )
                  (     1          1          0      )
                  (     0          0         -1      )

 cart.    s( 2) = ( -1.0000000  0.0000000  0.0000000 )
                  (  0.0000000  1.0000000  0.0000000 )
                  (  0.0000000  0.0000000 -1.0000000 )


      isym =  3     120 deg rotation - cryst. axis [0,0,1]       

 cryst.   s( 3) = (     0          1          0      )
                  (    -1         -1          0      )
                  (     0          0          1      )

 cart.    s( 3) = ( -0.5000000 -0.8660254  0.0000000 )
                  (  0.8660254 -0.5000000  0.0000000 )
                  (  0.0000000  0.0000000  1.0000000 )


      isym =  4     120 deg rotation - cryst. axis [0,0,-1]      

 cryst.   s( 4) = (    -1         -1          0      )
                  (     1          0          0      )
                  (     0          0          1      )

 cart.    s( 4) = ( -0.5000000  0.8660254  0.0000000 )
                  ( -0.8660254 -0.5000000  0.0000000 )
                  (  0.0000000  0.0000000  1.0000000 )


      isym =  5     180 deg rotation - cryst. axis [1,-1,0]      

 cryst.   s( 5) = (     0         -1          0      )
                  (    -1          0          0      )
                  (     0          0         -1      )

 cart.    s( 5) = (  0.5000000 -0.8660254  0.0000000 )
                  ( -0.8660254 -0.5000000  0.0000000 )
                  (  0.0000000  0.0000000 -1.0000000 )


      isym =  6     180 deg rotation - cryst. axis [2,1,0]       

 cryst.   s( 6) = (     1          1          0      )
                  (     0         -1          0      )
                  (     0          0         -1      )

 cart.    s( 6) = (  0.5000000  0.8660254  0.0000000 )
                  (  0.8660254 -0.5000000  0.0000000 )
                  (  0.0000000  0.0000000 -1.0000000 )


      isym =  7     inv. 180 deg rotation - cart. axis [0,0,1]   

 cryst.   s( 7) = (     1          0          0      )
                  (     0          1          0      )
                  (     0          0         -1      )

 cart.    s( 7) = (  1.0000000  0.0000000  0.0000000 )
                  (  0.0000000  1.0000000  0.0000000 )
                  (  0.0000000  0.0000000 -1.0000000 )


      isym =  8     inv. 180 deg rotation - cart. axis [1,0,0]   

 cryst.   s( 8) = (    -1          0          0      )
                  (     1          1          0      )
                  (     0          0          1      )

 cart.    s( 8) = ( -1.0000000  0.0000000  0.0000000 )
                  (  0.0000000  1.0000000  0.0000000 )
                  (  0.0000000  0.0000000  1.0000000 )


      isym =  9     inv.  60 deg rotation - cryst. axis [0,0,1]  

 cryst.   s( 9) = (    -1         -1          0      )
                  (     1          0          0      )
                  (     0          0         -1      )

 cart.    s( 9) = ( -0.5000000  0.8660254  0.0000000 )
                  ( -0.8660254 -0.5000000  0.0000000 )
                  (  0.0000000  0.0000000 -1.0000000 )


      isym = 10     inv.  60 deg rotation - cryst. axis [0,0,-1] 

 cryst.   s(10) = (     0          1          0      )
                  (    -1         -1          0      )
                  (     0          0         -1      )

 cart.    s(10) = ( -0.5000000 -0.8660254  0.0000000 )
                  (  0.8660254 -0.5000000  0.0000000 )
                  (  0.0000000  0.0000000 -1.0000000 )


      isym = 11     inv. 180 deg rotation - cryst. axis [0,1,0]  

 cryst.   s(11) = (     1          1          0      )
                  (     0         -1          0      )
                  (     0          0          1      )

 cart.    s(11) = (  0.5000000  0.8660254  0.0000000 )
                  (  0.8660254 -0.5000000  0.0000000 )
                  (  0.0000000  0.0000000  1.0000000 )


      isym = 12     inv. 180 deg rotation - cryst. axis [1,1,0]  

 cryst.   s(12) = (     0         -1          0      )
                  (    -1          0          0      )
                  (     0          0          1      )

 cart.    s(12) = (  0.5000000 -0.8660254  0.0000000 )
                  ( -0.8660254 -0.5000000  0.0000000 )
                  (  0.0000000  0.0000000  1.0000000 )


   Cartesian axes

     site n.     atom                  positions (alat units)
         1           Mo  tau(   1) = (   0.0000000   0.5773503   3.6347257  )
         2           S   tau(   2) = (   0.5000000   0.2886751   4.1254875  )
         3           S   tau(   3) = (   0.5000000   0.2886751   3.1439638  )

   Crystallographic axes

     site n.     atom                  positions (cryst. coord.)
         1           Mo  tau(   1) = (  0.3333333  0.6666667  0.5000000  )
         2           S   tau(   2) = (  0.6666667  0.3333333  0.5675102  )
         3           S   tau(   3) = (  0.6666667  0.3333333  0.4324898  )

     number of k points=   301
                       cart. coord. in units 2pi/alat
        k(    1) = (   0.0000000   0.0000000   0.0000000), wk =   0.0033223
        k(    2) = (   0.0000000   0.0057735   0.0000000), wk =   0.0033223
        k(    3) = (   0.0000000   0.0115470   0.0000000), wk =   0.0033223
        k(    4) = (   0.0000000   0.0173205   0.0000000), wk =   0.0033223
        k(    5) = (   0.0000000   0.0230940   0.0000000), wk =   0.0033223
        k(    6) = (   0.0000000   0.0288675   0.0000000), wk =   0.0033223
        k(    7) = (   0.0000000   0.0346410   0.0000000), wk =   0.0033223
        k(    8) = (   0.0000000   0.0404145   0.0000000), wk =   0.0033223
        k(    9) = (   0.0000000   0.0461880   0.0000000), wk =   0.0033223
        k(   10) = (   0.0000000   0.0519615   0.0000000), wk =   0.0033223
        k(   11) = (   0.0000000   0.0577350   0.0000000), wk =   0.0033223
        k(   12) = (   0.0000000   0.0635085   0.0000000), wk =   0.0033223
        k(   13) = (   0.0000000   0.0692820   0.0000000), wk =   0.0033223
        k(   14) = (   0.0000000   0.0750555   0.0000000), wk =   0.0033223
        k(   15) = (   0.0000000   0.0808290   0.0000000), wk =   0.0033223
        k(   16) = (   0.0000000   0.0866025   0.0000000), wk =   0.0033223
        k(   17) = (   0.0000000   0.0923760   0.0000000), wk =   0.0033223
        k(   18) = (   0.0000000   0.0981495   0.0000000), wk =   0.0033223
        k(   19) = (   0.0000000   0.1039230   0.0000000), wk =   0.0033223
        k(   20) = (   0.0000000   0.1096966   0.0000000), wk =   0.0033223
        k(   21) = (   0.0000000   0.1154701   0.0000000), wk =   0.0033223
        k(   22) = (   0.0000000   0.1212436   0.0000000), wk =   0.0033223
        k(   23) = (   0.0000000   0.1270171   0.0000000), wk =   0.0033223
        k(   24) = (   0.0000000   0.1327906   0.0000000), wk =   0.0033223
        k(   25) = (   0.0000000   0.1385641   0.0000000), wk =   0.0033223
        k(   26) = (   0.0000000   0.1443376   0.0000000), wk =   0.0033223
        k(   27) = (   0.0000000   0.1501111   0.0000000), wk =   0.0033223
        k(   28) = (   0.0000000   0.1558846   0.0000000), wk =   0.0033223
        k(   29) = (   0.0000000   0.1616581   0.0000000), wk =   0.0033223
        k(   30) = (   0.0000000   0.1674316   0.0000000), wk =   0.0033223
        k(   31) = (   0.0000000   0.1732051   0.0000000), wk =   0.0033223
        k(   32) = (   0.0000000   0.1789786   0.0000000), wk =   0.0033223
        k(   33) = (   0.0000000   0.1847521   0.0000000), wk =   0.0033223
        k(   34) = (   0.0000000   0.1905256   0.0000000), wk =   0.0033223
        k(   35) = (   0.0000000   0.1962991   0.0000000), wk =   0.0033223
        k(   36) = (   0.0000000   0.2020726   0.0000000), wk =   0.0033223
        k(   37) = (   0.0000000   0.2078461   0.0000000), wk =   0.0033223
        k(   38) = (   0.0000000   0.2136196   0.0000000), wk =   0.0033223
        k(   39) = (   0.0000000   0.2193931   0.0000000), wk =   0.0033223
        k(   40) = (   0.0000000   0.2251666   0.0000000), wk =   0.0033223
        k(   41) = (   0.0000000   0.2309401   0.0000000), wk =   0.0033223
        k(   42) = (   0.0000000   0.2367136   0.0000000), wk =   0.0033223
        k(   43) = (   0.0000000   0.2424871   0.0000000), wk =   0.0033223
        k(   44) = (   0.0000000   0.2482606   0.0000000), wk =   0.0033223
        k(   45) = (   0.0000000   0.2540341   0.0000000), wk =   0.0033223
        k(   46) = (   0.0000000   0.2598076   0.0000000), wk =   0.0033223
        k(   47) = (   0.0000000   0.2655811   0.0000000), wk =   0.0033223
        k(   48) = (   0.0000000   0.2713546   0.0000000), wk =   0.0033223
        k(   49) = (   0.0000000   0.2771281   0.0000000), wk =   0.0033223
        k(   50) = (   0.0000000   0.2829016   0.0000000), wk =   0.0033223
        k(   51) = (   0.0000000   0.2886751   0.0000000), wk =   0.0033223
        k(   52) = (   0.0000000   0.2944486   0.0000000), wk =   0.0033223
        k(   53) = (   0.0000000   0.3002221   0.0000000), wk =   0.0033223
        k(   54) = (   0.0000000   0.3059956   0.0000000), wk =   0.0033223
        k(   55) = (   0.0000000   0.3117691   0.0000000), wk =   0.0033223
        k(   56) = (   0.0000000   0.3175426   0.0000000), wk =   0.0033223
        k(   57) = (   0.0000000   0.3233162   0.0000000), wk =   0.0033223
        k(   58) = (   0.0000000   0.3290897   0.0000000), wk =   0.0033223
        k(   59) = (   0.0000000   0.3348632   0.0000000), wk =   0.0033223
        k(   60) = (   0.0000000   0.3406367   0.0000000), wk =   0.0033223
        k(   61) = (   0.0000000   0.3464102   0.0000000), wk =   0.0033223
        k(   62) = (   0.0000000   0.3521837   0.0000000), wk =   0.0033223
        k(   63) = (   0.0000000   0.3579572   0.0000000), wk =   0.0033223
        k(   64) = (   0.0000000   0.3637307   0.0000000), wk =   0.0033223
        k(   65) = (   0.0000000   0.3695042   0.0000000), wk =   0.0033223
        k(   66) = (   0.0000000   0.3752777   0.0000000), wk =   0.0033223
        k(   67) = (   0.0000000   0.3810512   0.0000000), wk =   0.0033223
        k(   68) = (   0.0000000   0.3868247   0.0000000), wk =   0.0033223
        k(   69) = (   0.0000000   0.3925982   0.0000000), wk =   0.0033223
        k(   70) = (   0.0000000   0.3983717   0.0000000), wk =   0.0033223
        k(   71) = (   0.0000000   0.4041452   0.0000000), wk =   0.0033223
        k(   72) = (   0.0000000   0.4099187   0.0000000), wk =   0.0033223
        k(   73) = (   0.0000000   0.4156922   0.0000000), wk =   0.0033223
        k(   74) = (   0.0000000   0.4214657   0.0000000), wk =   0.0033223
        k(   75) = (   0.0000000   0.4272392   0.0000000), wk =   0.0033223
        k(   76) = (   0.0000000   0.4330127   0.0000000), wk =   0.0033223
        k(   77) = (   0.0000000   0.4387862   0.0000000), wk =   0.0033223
        k(   78) = (   0.0000000   0.4445597   0.0000000), wk =   0.0033223
        k(   79) = (   0.0000000   0.4503332   0.0000000), wk =   0.0033223
        k(   80) = (   0.0000000   0.4561067   0.0000000), wk =   0.0033223
        k(   81) = (   0.0000000   0.4618802   0.0000000), wk =   0.0033223
        k(   82) = (   0.0000000   0.4676537   0.0000000), wk =   0.0033223
        k(   83) = (   0.0000000   0.4734272   0.0000000), wk =   0.0033223
        k(   84) = (   0.0000000   0.4792007   0.0000000), wk =   0.0033223
        k(   85) = (   0.0000000   0.4849742   0.0000000), wk =   0.0033223
        k(   86) = (   0.0000000   0.4907477   0.0000000), wk =   0.0033223
        k(   87) = (   0.0000000   0.4965212   0.0000000), wk =   0.0033223
        k(   88) = (   0.0000000   0.5022947   0.0000000), wk =   0.0033223
        k(   89) = (   0.0000000   0.5080682   0.0000000), wk =   0.0033223
        k(   90) = (   0.0000000   0.5138417   0.0000000), wk =   0.0033223
        k(   91) = (   0.0000000   0.5196152   0.0000000), wk =   0.0033223
        k(   92) = (   0.0000000   0.5253887   0.0000000), wk =   0.0033223
        k(   93) = (   0.0000000   0.5311622   0.0000000), wk =   0.0033223
        k(   94) = (   0.0000000   0.5369358   0.0000000), wk =   0.0033223
        k(   95) = (   0.0000000   0.5427093   0.0000000), wk =   0.0033223
        k(   96) = (   0.0000000   0.5484828   0.0000000), wk =   0.0033223
        k(   97) = (   0.0000000   0.5542563   0.0000000), wk =   0.0033223
        k(   98) = (   0.0000000   0.5600298   0.0000000), wk =   0.0033223
        k(   99) = (   0.0000000   0.5658033   0.0000000), wk =   0.0033223
        k(  100) = (   0.0000000   0.5715768   0.0000000), wk =   0.0033223
        k(  101) = (   0.0000000   0.5773503   0.0000000), wk =   0.0033223
        k(  102) = (   0.0033333   0.5773503   0.0000000), wk =   0.0033223
        k(  103) = (   0.0066667   0.5773503   0.0000000), wk =   0.0033223
        k(  104) = (   0.0100000   0.5773503   0.0000000), wk =   0.0033223
        k(  105) = (   0.0133333   0.5773503   0.0000000), wk =   0.0033223
        k(  106) = (   0.0166667   0.5773503   0.0000000), wk =   0.0033223
        k(  107) = (   0.0200000   0.5773503   0.0000000), wk =   0.0033223
        k(  108) = (   0.0233333   0.5773503   0.0000000), wk =   0.0033223
        k(  109) = (   0.0266667   0.5773503   0.0000000), wk =   0.0033223
        k(  110) = (   0.0300000   0.5773503   0.0000000), wk =   0.0033223
        k(  111) = (   0.0333333   0.5773503   0.0000000), wk =   0.0033223
        k(  112) = (   0.0366667   0.5773503   0.0000000), wk =   0.0033223
        k(  113) = (   0.0400000   0.5773503   0.0000000), wk =   0.0033223
        k(  114) = (   0.0433333   0.5773503   0.0000000), wk =   0.0033223
        k(  115) = (   0.0466667   0.5773503   0.0000000), wk =   0.0033223
        k(  116) = (   0.0500000   0.5773503   0.0000000), wk =   0.0033223
        k(  117) = (   0.0533333   0.5773503   0.0000000), wk =   0.0033223
        k(  118) = (   0.0566667   0.5773503   0.0000000), wk =   0.0033223
        k(  119) = (   0.0600000   0.5773503   0.0000000), wk =   0.0033223
        k(  120) = (   0.0633333   0.5773503   0.0000000), wk =   0.0033223
        k(  121) = (   0.0666667   0.5773503   0.0000000), wk =   0.0033223
        k(  122) = (   0.0700000   0.5773503   0.0000000), wk =   0.0033223
        k(  123) = (   0.0733333   0.5773503   0.0000000), wk =   0.0033223
        k(  124) = (   0.0766667   0.5773503   0.0000000), wk =   0.0033223
        k(  125) = (   0.0800000   0.5773503   0.0000000), wk =   0.0033223
        k(  126) = (   0.0833333   0.5773503   0.0000000), wk =   0.0033223
        k(  127) = (   0.0866667   0.5773503   0.0000000), wk =   0.0033223
        k(  128) = (   0.0900000   0.5773503   0.0000000), wk =   0.0033223
        k(  129) = (   0.0933333   0.5773503   0.0000000), wk =   0.0033223
        k(  130) = (   0.0966667   0.5773503   0.0000000), wk =   0.0033223
        k(  131) = (   0.1000000   0.5773503   0.0000000), wk =   0.0033223
        k(  132) = (   0.1033333   0.5773503   0.0000000), wk =   0.0033223
        k(  133) = (   0.1066667   0.5773503   0.0000000), wk =   0.0033223
        k(  134) = (   0.1100000   0.5773503   0.0000000), wk =   0.0033223
        k(  135) = (   0.1133333   0.5773503   0.0000000), wk =   0.0033223
        k(  136) = (   0.1166667   0.5773503   0.0000000), wk =   0.0033223
        k(  137) = (   0.1200000   0.5773503   0.0000000), wk =   0.0033223
        k(  138) = (   0.1233333   0.5773503   0.0000000), wk =   0.0033223
        k(  139) = (   0.1266667   0.5773503   0.0000000), wk =   0.0033223
        k(  140) = (   0.1300000   0.5773503   0.0000000), wk =   0.0033223
        k(  141) = (   0.1333333   0.5773503   0.0000000), wk =   0.0033223
        k(  142) = (   0.1366667   0.5773503   0.0000000), wk =   0.0033223
        k(  143) = (   0.1400000   0.5773503   0.0000000), wk =   0.0033223
        k(  144) = (   0.1433333   0.5773503   0.0000000), wk =   0.0033223
        k(  145) = (   0.1466667   0.5773503   0.0000000), wk =   0.0033223
        k(  146) = (   0.1500000   0.5773503   0.0000000), wk =   0.0033223
        k(  147) = (   0.1533333   0.5773503   0.0000000), wk =   0.0033223
        k(  148) = (   0.1566667   0.5773503   0.0000000), wk =   0.0033223
        k(  149) = (   0.1600000   0.5773503   0.0000000), wk =   0.0033223
        k(  150) = (   0.1633333   0.5773503   0.0000000), wk =   0.0033223
        k(  151) = (   0.1666667   0.5773503   0.0000000), wk =   0.0033223
        k(  152) = (   0.1700000   0.5773503   0.0000000), wk =   0.0033223
        k(  153) = (   0.1733333   0.5773503   0.0000000), wk =   0.0033223
        k(  154) = (   0.1766667   0.5773503   0.0000000), wk =   0.0033223
        k(  155) = (   0.1800000   0.5773503   0.0000000), wk =   0.0033223
        k(  156) = (   0.1833333   0.5773503   0.0000000), wk =   0.0033223
        k(  157) = (   0.1866667   0.5773503   0.0000000), wk =   0.0033223
        k(  158) = (   0.1900000   0.5773503   0.0000000), wk =   0.0033223
        k(  159) = (   0.1933333   0.5773503   0.0000000), wk =   0.0033223
        k(  160) = (   0.1966667   0.5773503   0.0000000), wk =   0.0033223
        k(  161) = (   0.2000000   0.5773503   0.0000000), wk =   0.0033223
        k(  162) = (   0.2033333   0.5773503   0.0000000), wk =   0.0033223
        k(  163) = (   0.2066667   0.5773503   0.0000000), wk =   0.0033223
        k(  164) = (   0.2100000   0.5773503   0.0000000), wk =   0.0033223
        k(  165) = (   0.2133333   0.5773503   0.0000000), wk =   0.0033223
        k(  166) = (   0.2166667   0.5773503   0.0000000), wk =   0.0033223
        k(  167) = (   0.2200000   0.5773503   0.0000000), wk =   0.0033223
        k(  168) = (   0.2233333   0.5773503   0.0000000), wk =   0.0033223
        k(  169) = (   0.2266667   0.5773503   0.0000000), wk =   0.0033223
        k(  170) = (   0.2300000   0.5773503   0.0000000), wk =   0.0033223
        k(  171) = (   0.2333333   0.5773503   0.0000000), wk =   0.0033223
        k(  172) = (   0.2366667   0.5773503   0.0000000), wk =   0.0033223
        k(  173) = (   0.2400000   0.5773503   0.0000000), wk =   0.0033223
        k(  174) = (   0.2433333   0.5773503   0.0000000), wk =   0.0033223
        k(  175) = (   0.2466667   0.5773503   0.0000000), wk =   0.0033223
        k(  176) = (   0.2500000   0.5773503   0.0000000), wk =   0.0033223
        k(  177) = (   0.2533333   0.5773503   0.0000000), wk =   0.0033223
        k(  178) = (   0.2566667   0.5773503   0.0000000), wk =   0.0033223
        k(  179) = (   0.2600000   0.5773503   0.0000000), wk =   0.0033223
        k(  180) = (   0.2633333   0.5773503   0.0000000), wk =   0.0033223
        k(  181) = (   0.2666667   0.5773503   0.0000000), wk =   0.0033223
        k(  182) = (   0.2700000   0.5773503   0.0000000), wk =   0.0033223
        k(  183) = (   0.2733333   0.5773503   0.0000000), wk =   0.0033223
        k(  184) = (   0.2766667   0.5773503   0.0000000), wk =   0.0033223
        k(  185) = (   0.2800000   0.5773503   0.0000000), wk =   0.0033223
        k(  186) = (   0.2833333   0.5773503   0.0000000), wk =   0.0033223
        k(  187) = (   0.2866667   0.5773503   0.0000000), wk =   0.0033223
        k(  188) = (   0.2900000   0.5773503   0.0000000), wk =   0.0033223
        k(  189) = (   0.2933333   0.5773503   0.0000000), wk =   0.0033223
        k(  190) = (   0.2966667   0.5773503   0.0000000), wk =   0.0033223
        k(  191) = (   0.3000000   0.5773503   0.0000000), wk =   0.0033223
        k(  192) = (   0.3033333   0.5773503   0.0000000), wk =   0.0033223
        k(  193) = (   0.3066667   0.5773503   0.0000000), wk =   0.0033223
        k(  194) = (   0.3100000   0.5773503   0.0000000), wk =   0.0033223
        k(  195) = (   0.3133333   0.5773503   0.0000000), wk =   0.0033223
        k(  196) = (   0.3166667   0.5773503   0.0000000), wk =   0.0033223
        k(  197) = (   0.3200000   0.5773503   0.0000000), wk =   0.0033223
        k(  198) = (   0.3233333   0.5773503   0.0000000), wk =   0.0033223
        k(  199) = (   0.3266667   0.5773503   0.0000000), wk =   0.0033223
        k(  200) = (   0.3300000   0.5773503   0.0000000), wk =   0.0033223
        k(  201) = (   0.3333333   0.5773503   0.0000000), wk =   0.0033223
        k(  202) = (   0.3300000   0.5715768   0.0000000), wk =   0.0033223
        k(  203) = (   0.3266667   0.5658033   0.0000000), wk =   0.0033223
        k(  204) = (   0.3233333   0.5600298   0.0000000), wk =   0.0033223
        k(  205) = (   0.3200000   0.5542563   0.0000000), wk =   0.0033223
        k(  206) = (   0.3166667   0.5484828   0.0000000), wk =   0.0033223
        k(  207) = (   0.3133333   0.5427092   0.0000000), wk =   0.0033223
        k(  208) = (   0.3100000   0.5369357   0.0000000), wk =   0.0033223
        k(  209) = (   0.3066667   0.5311622   0.0000000), wk =   0.0033223
        k(  210) = (   0.3033333   0.5253887   0.0000000), wk =   0.0033223
        k(  211) = (   0.3000000   0.5196152   0.0000000), wk =   0.0033223
        k(  212) = (   0.2966667   0.5138417   0.0000000), wk =   0.0033223
        k(  213) = (   0.2933333   0.5080682   0.0000000), wk =   0.0033223
        k(  214) = (   0.2900000   0.5022947   0.0000000), wk =   0.0033223
        k(  215) = (   0.2866667   0.4965212   0.0000000), wk =   0.0033223
        k(  216) = (   0.2833333   0.4907477   0.0000000), wk =   0.0033223
        k(  217) = (   0.2800000   0.4849742   0.0000000), wk =   0.0033223
        k(  218) = (   0.2766667   0.4792007   0.0000000), wk =   0.0033223
        k(  219) = (   0.2733333   0.4734272   0.0000000), wk =   0.0033223
        k(  220) = (   0.2700000   0.4676537   0.0000000), wk =   0.0033223
        k(  221) = (   0.2666667   0.4618802   0.0000000), wk =   0.0033223
        k(  222) = (   0.2633333   0.4561067   0.0000000), wk =   0.0033223
        k(  223) = (   0.2600000   0.4503332   0.0000000), wk =   0.0033223
        k(  224) = (   0.2566667   0.4445597   0.0000000), wk =   0.0033223
        k(  225) = (   0.2533333   0.4387862   0.0000000), wk =   0.0033223
        k(  226) = (   0.2500000   0.4330127   0.0000000), wk =   0.0033223
        k(  227) = (   0.2466667   0.4272392   0.0000000), wk =   0.0033223
        k(  228) = (   0.2433333   0.4214657   0.0000000), wk =   0.0033223
        k(  229) = (   0.2400000   0.4156922   0.0000000), wk =   0.0033223
        k(  230) = (   0.2366667   0.4099187   0.0000000), wk =   0.0033223
        k(  231) = (   0.2333333   0.4041452   0.0000000), wk =   0.0033223
        k(  232) = (   0.2300000   0.3983717   0.0000000), wk =   0.0033223
        k(  233) = (   0.2266667   0.3925982   0.0000000), wk =   0.0033223
        k(  234) = (   0.2233333   0.3868247   0.0000000), wk =   0.0033223
        k(  235) = (   0.2200000   0.3810512   0.0000000), wk =   0.0033223
        k(  236) = (   0.2166667   0.3752777   0.0000000), wk =   0.0033223
        k(  237) = (   0.2133333   0.3695042   0.0000000), wk =   0.0033223
        k(  238) = (   0.2100000   0.3637307   0.0000000), wk =   0.0033223
        k(  239) = (   0.2066667   0.3579572   0.0000000), wk =   0.0033223
        k(  240) = (   0.2033333   0.3521837   0.0000000), wk =   0.0033223
        k(  241) = (   0.2000000   0.3464102   0.0000000), wk =   0.0033223
        k(  242) = (   0.1966667   0.3406367   0.0000000), wk =   0.0033223
        k(  243) = (   0.1933333   0.3348632   0.0000000), wk =   0.0033223
        k(  244) = (   0.1900000   0.3290897   0.0000000), wk =   0.0033223
        k(  245) = (   0.1866667   0.3233161   0.0000000), wk =   0.0033223
        k(  246) = (   0.1833333   0.3175426   0.0000000), wk =   0.0033223
        k(  247) = (   0.1800000   0.3117691   0.0000000), wk =   0.0033223
        k(  248) = (   0.1766667   0.3059956   0.0000000), wk =   0.0033223
        k(  249) = (   0.1733333   0.3002221   0.0000000), wk =   0.0033223
        k(  250) = (   0.1700000   0.2944486   0.0000000), wk =   0.0033223
        k(  251) = (   0.1666667   0.2886751   0.0000000), wk =   0.0033223
        k(  252) = (   0.1633333   0.2829016   0.0000000), wk =   0.0033223
        k(  253) = (   0.1600000   0.2771281   0.0000000), wk =   0.0033223
        k(  254) = (   0.1566667   0.2713546   0.0000000), wk =   0.0033223
        k(  255) = (   0.1533333   0.2655811   0.0000000), wk =   0.0033223
        k(  256) = (   0.1500000   0.2598076   0.0000000), wk =   0.0033223
        k(  257) = (   0.1466667   0.2540341   0.0000000), wk =   0.0033223
        k(  258) = (   0.1433333   0.2482606   0.0000000), wk =   0.0033223
        k(  259) = (   0.1400000   0.2424871   0.0000000), wk =   0.0033223
        k(  260) = (   0.1366667   0.2367136   0.0000000), wk =   0.0033223
        k(  261) = (   0.1333333   0.2309401   0.0000000), wk =   0.0033223
        k(  262) = (   0.1300000   0.2251666   0.0000000), wk =   0.0033223
        k(  263) = (   0.1266667   0.2193931   0.0000000), wk =   0.0033223
        k(  264) = (   0.1233333   0.2136196   0.0000000), wk =   0.0033223
        k(  265) = (   0.1200000   0.2078461   0.0000000), wk =   0.0033223
        k(  266) = (   0.1166667   0.2020726   0.0000000), wk =   0.0033223
        k(  267) = (   0.1133333   0.1962991   0.0000000), wk =   0.0033223
        k(  268) = (   0.1100000   0.1905256   0.0000000), wk =   0.0033223
        k(  269) = (   0.1066667   0.1847521   0.0000000), wk =   0.0033223
        k(  270) = (   0.1033333   0.1789786   0.0000000), wk =   0.0033223
        k(  271) = (   0.1000000   0.1732051   0.0000000), wk =   0.0033223
        k(  272) = (   0.0966667   0.1674316   0.0000000), wk =   0.0033223
        k(  273) = (   0.0933333   0.1616581   0.0000000), wk =   0.0033223
        k(  274) = (   0.0900000   0.1558846   0.0000000), wk =   0.0033223
        k(  275) = (   0.0866667   0.1501111   0.0000000), wk =   0.0033223
        k(  276) = (   0.0833333   0.1443376   0.0000000), wk =   0.0033223
        k(  277) = (   0.0800000   0.1385641   0.0000000), wk =   0.0033223
        k(  278) = (   0.0766667   0.1327906   0.0000000), wk =   0.0033223
        k(  279) = (   0.0733333   0.1270171   0.0000000), wk =   0.0033223
        k(  280) = (   0.0700000   0.1212436   0.0000000), wk =   0.0033223
        k(  281) = (   0.0666667   0.1154701   0.0000000), wk =   0.0033223
        k(  282) = (   0.0633333   0.1096966   0.0000000), wk =   0.0033223
        k(  283) = (   0.0600000   0.1039230   0.0000000), wk =   0.0033223
        k(  284) = (   0.0566667   0.0981495   0.0000000), wk =   0.0033223
        k(  285) = (   0.0533333   0.0923760   0.0000000), wk =   0.0033223
        k(  286) = (   0.0500000   0.0866025   0.0000000), wk =   0.0033223
        k(  287) = (   0.0466667   0.0808290   0.0000000), wk =   0.0033223
        k(  288) = (   0.0433333   0.0750555   0.0000000), wk =   0.0033223
        k(  289) = (   0.0400000   0.0692820   0.0000000), wk =   0.0033223
        k(  290) = (   0.0366667   0.0635085   0.0000000), wk =   0.0033223
        k(  291) = (   0.0333333   0.0577350   0.0000000), wk =   0.0033223
        k(  292) = (   0.0300000   0.0519615   0.0000000), wk =   0.0033223
        k(  293) = (   0.0266667   0.0461880   0.0000000), wk =   0.0033223
        k(  294) = (   0.0233333   0.0404145   0.0000000), wk =   0.0033223
        k(  295) = (   0.0200000   0.0346410   0.0000000), wk =   0.0033223
        k(  296) = (   0.0166667   0.0288675   0.0000000), wk =   0.0033223
        k(  297) = (   0.0133333   0.0230940   0.0000000), wk =   0.0033223
        k(  298) = (   0.0100000   0.0173205   0.0000000), wk =   0.0033223
        k(  299) = (   0.0066667   0.0115470   0.0000000), wk =   0.0033223
        k(  300) = (   0.0033333   0.0057735   0.0000000), wk =   0.0033223
        k(  301) = (   0.0000000   0.0000000   0.0000000), wk =   0.0033223

                       cryst. coord.
        k(    1) = (   0.0000000   0.0000000   0.0000000), wk =   0.0033223
        k(    2) = (   0.0000000   0.0050000   0.0000000), wk =   0.0033223
        k(    3) = (   0.0000000   0.0100000   0.0000000), wk =   0.0033223
        k(    4) = (   0.0000000   0.0150000   0.0000000), wk =   0.0033223
        k(    5) = (   0.0000000   0.0200000   0.0000000), wk =   0.0033223
        k(    6) = (   0.0000000   0.0250000   0.0000000), wk =   0.0033223
        k(    7) = (   0.0000000   0.0300000   0.0000000), wk =   0.0033223
        k(    8) = (   0.0000000   0.0350000   0.0000000), wk =   0.0033223
        k(    9) = (   0.0000000   0.0400000   0.0000000), wk =   0.0033223
        k(   10) = (   0.0000000   0.0450000   0.0000000), wk =   0.0033223
        k(   11) = (   0.0000000   0.0500000   0.0000000), wk =   0.0033223
        k(   12) = (   0.0000000   0.0550000   0.0000000), wk =   0.0033223
        k(   13) = (   0.0000000   0.0600000   0.0000000), wk =   0.0033223
        k(   14) = (   0.0000000   0.0650000   0.0000000), wk =   0.0033223
        k(   15) = (   0.0000000   0.0700000   0.0000000), wk =   0.0033223
        k(   16) = (   0.0000000   0.0750000   0.0000000), wk =   0.0033223
        k(   17) = (   0.0000000   0.0800000   0.0000000), wk =   0.0033223
        k(   18) = (   0.0000000   0.0850000   0.0000000), wk =   0.0033223
        k(   19) = (   0.0000000   0.0900000   0.0000000), wk =   0.0033223
        k(   20) = (   0.0000000   0.0950000   0.0000000), wk =   0.0033223
        k(   21) = (   0.0000000   0.1000000   0.0000000), wk =   0.0033223
        k(   22) = (   0.0000000   0.1050000   0.0000000), wk =   0.0033223
        k(   23) = (   0.0000000   0.1100000   0.0000000), wk =   0.0033223
        k(   24) = (   0.0000000   0.1150000   0.0000000), wk =   0.0033223
        k(   25) = (   0.0000000   0.1200000   0.0000000), wk =   0.0033223
        k(   26) = (   0.0000000   0.1250000   0.0000000), wk =   0.0033223
        k(   27) = (   0.0000000   0.1300000   0.0000000), wk =   0.0033223
        k(   28) = (   0.0000000   0.1350000   0.0000000), wk =   0.0033223
        k(   29) = (   0.0000000   0.1400000   0.0000000), wk =   0.0033223
        k(   30) = (   0.0000000   0.1450000   0.0000000), wk =   0.0033223
        k(   31) = (   0.0000000   0.1500000   0.0000000), wk =   0.0033223
        k(   32) = (   0.0000000   0.1550000   0.0000000), wk =   0.0033223
        k(   33) = (   0.0000000   0.1600000   0.0000000), wk =   0.0033223
        k(   34) = (   0.0000000   0.1650000   0.0000000), wk =   0.0033223
        k(   35) = (   0.0000000   0.1700000   0.0000000), wk =   0.0033223
        k(   36) = (   0.0000000   0.1750000   0.0000000), wk =   0.0033223
        k(   37) = (   0.0000000   0.1800000   0.0000000), wk =   0.0033223
        k(   38) = (   0.0000000   0.1850000   0.0000000), wk =   0.0033223
        k(   39) = (   0.0000000   0.1900000   0.0000000), wk =   0.0033223
        k(   40) = (   0.0000000   0.1950000   0.0000000), wk =   0.0033223
        k(   41) = (   0.0000000   0.2000000   0.0000000), wk =   0.0033223
        k(   42) = (   0.0000000   0.2050000   0.0000000), wk =   0.0033223
        k(   43) = (   0.0000000   0.2100000   0.0000000), wk =   0.0033223
        k(   44) = (   0.0000000   0.2150000   0.0000000), wk =   0.0033223
        k(   45) = (   0.0000000   0.2200000   0.0000000), wk =   0.0033223
        k(   46) = (   0.0000000   0.2250000   0.0000000), wk =   0.0033223
        k(   47) = (   0.0000000   0.2300000   0.0000000), wk =   0.0033223
        k(   48) = (   0.0000000   0.2350000   0.0000000), wk =   0.0033223
        k(   49) = (   0.0000000   0.2400000   0.0000000), wk =   0.0033223
        k(   50) = (   0.0000000   0.2450000   0.0000000), wk =   0.0033223
        k(   51) = (   0.0000000   0.2500000   0.0000000), wk =   0.0033223
        k(   52) = (   0.0000000   0.2550000   0.0000000), wk =   0.0033223
        k(   53) = (   0.0000000   0.2600000   0.0000000), wk =   0.0033223
        k(   54) = (   0.0000000   0.2650000   0.0000000), wk =   0.0033223
        k(   55) = (   0.0000000   0.2700000   0.0000000), wk =   0.0033223
        k(   56) = (   0.0000000   0.2750000   0.0000000), wk =   0.0033223
        k(   57) = (   0.0000000   0.2800000   0.0000000), wk =   0.0033223
        k(   58) = (   0.0000000   0.2850000   0.0000000), wk =   0.0033223
        k(   59) = (   0.0000000   0.2900000   0.0000000), wk =   0.0033223
        k(   60) = (   0.0000000   0.2950000   0.0000000), wk =   0.0033223
        k(   61) = (   0.0000000   0.3000000   0.0000000), wk =   0.0033223
        k(   62) = (   0.0000000   0.3050000   0.0000000), wk =   0.0033223
        k(   63) = (   0.0000000   0.3100000   0.0000000), wk =   0.0033223
        k(   64) = (   0.0000000   0.3150000   0.0000000), wk =   0.0033223
        k(   65) = (   0.0000000   0.3200000   0.0000000), wk =   0.0033223
        k(   66) = (   0.0000000   0.3250000   0.0000000), wk =   0.0033223
        k(   67) = (   0.0000000   0.3300000   0.0000000), wk =   0.0033223
        k(   68) = (   0.0000000   0.3350000   0.0000000), wk =   0.0033223
        k(   69) = (   0.0000000   0.3400000   0.0000000), wk =   0.0033223
        k(   70) = (   0.0000000   0.3450000   0.0000000), wk =   0.0033223
        k(   71) = (   0.0000000   0.3500000   0.0000000), wk =   0.0033223
        k(   72) = (   0.0000000   0.3550000   0.0000000), wk =   0.0033223
        k(   73) = (   0.0000000   0.3600000   0.0000000), wk =   0.0033223
        k(   74) = (   0.0000000   0.3650000   0.0000000), wk =   0.0033223
        k(   75) = (   0.0000000   0.3700000   0.0000000), wk =   0.0033223
        k(   76) = (   0.0000000   0.3750000   0.0000000), wk =   0.0033223
        k(   77) = (   0.0000000   0.3800000   0.0000000), wk =   0.0033223
        k(   78) = (   0.0000000   0.3850000   0.0000000), wk =   0.0033223
        k(   79) = (   0.0000000   0.3900000   0.0000000), wk =   0.0033223
        k(   80) = (   0.0000000   0.3950000   0.0000000), wk =   0.0033223
        k(   81) = (   0.0000000   0.4000000   0.0000000), wk =   0.0033223
        k(   82) = (   0.0000000   0.4050000   0.0000000), wk =   0.0033223
        k(   83) = (   0.0000000   0.4100000   0.0000000), wk =   0.0033223
        k(   84) = (   0.0000000   0.4150000   0.0000000), wk =   0.0033223
        k(   85) = (   0.0000000   0.4200000   0.0000000), wk =   0.0033223
        k(   86) = (   0.0000000   0.4250000   0.0000000), wk =   0.0033223
        k(   87) = (   0.0000000   0.4300000   0.0000000), wk =   0.0033223
        k(   88) = (   0.0000000   0.4350000   0.0000000), wk =   0.0033223
        k(   89) = (   0.0000000   0.4400000   0.0000000), wk =   0.0033223
        k(   90) = (   0.0000000   0.4450000   0.0000000), wk =   0.0033223
        k(   91) = (   0.0000000   0.4500000   0.0000000), wk =   0.0033223
        k(   92) = (   0.0000000   0.4550000   0.0000000), wk =   0.0033223
        k(   93) = (   0.0000000   0.4600000   0.0000000), wk =   0.0033223
        k(   94) = (   0.0000000   0.4650000   0.0000000), wk =   0.0033223
        k(   95) = (   0.0000000   0.4700000   0.0000000), wk =   0.0033223
        k(   96) = (   0.0000000   0.4750000   0.0000000), wk =   0.0033223
        k(   97) = (   0.0000000   0.4800000   0.0000000), wk =   0.0033223
        k(   98) = (   0.0000000   0.4850000   0.0000000), wk =   0.0033223
        k(   99) = (   0.0000000   0.4900000   0.0000000), wk =   0.0033223
        k(  100) = (   0.0000000   0.4950000   0.0000000), wk =   0.0033223
        k(  101) = (   0.0000000   0.5000000   0.0000000), wk =   0.0033223
        k(  102) = (   0.0033333   0.4983333   0.0000000), wk =   0.0033223
        k(  103) = (   0.0066667   0.4966667   0.0000000), wk =   0.0033223
        k(  104) = (   0.0100000   0.4950000   0.0000000), wk =   0.0033223
        k(  105) = (   0.0133333   0.4933333   0.0000000), wk =   0.0033223
        k(  106) = (   0.0166667   0.4916667   0.0000000), wk =   0.0033223
        k(  107) = (   0.0200000   0.4900000   0.0000000), wk =   0.0033223
        k(  108) = (   0.0233333   0.4883333   0.0000000), wk =   0.0033223
        k(  109) = (   0.0266667   0.4866667   0.0000000), wk =   0.0033223
        k(  110) = (   0.0300000   0.4850000   0.0000000), wk =   0.0033223
        k(  111) = (   0.0333333   0.4833333   0.0000000), wk =   0.0033223
        k(  112) = (   0.0366667   0.4816667   0.0000000), wk =   0.0033223
        k(  113) = (   0.0400000   0.4800000   0.0000000), wk =   0.0033223
        k(  114) = (   0.0433333   0.4783333   0.0000000), wk =   0.0033223
        k(  115) = (   0.0466667   0.4766667   0.0000000), wk =   0.0033223
        k(  116) = (   0.0500000   0.4750000   0.0000000), wk =   0.0033223
        k(  117) = (   0.0533333   0.4733333   0.0000000), wk =   0.0033223
        k(  118) = (   0.0566667   0.4716667   0.0000000), wk =   0.0033223
        k(  119) = (   0.0600000   0.4700000   0.0000000), wk =   0.0033223
        k(  120) = (   0.0633333   0.4683333   0.0000000), wk =   0.0033223
        k(  121) = (   0.0666667   0.4666667   0.0000000), wk =   0.0033223
        k(  122) = (   0.0700000   0.4650000   0.0000000), wk =   0.0033223
        k(  123) = (   0.0733333   0.4633333   0.0000000), wk =   0.0033223
        k(  124) = (   0.0766667   0.4616667   0.0000000), wk =   0.0033223
        k(  125) = (   0.0800000   0.4600000   0.0000000), wk =   0.0033223
        k(  126) = (   0.0833333   0.4583333   0.0000000), wk =   0.0033223
        k(  127) = (   0.0866667   0.4566667   0.0000000), wk =   0.0033223
        k(  128) = (   0.0900000   0.4550000   0.0000000), wk =   0.0033223
        k(  129) = (   0.0933333   0.4533333   0.0000000), wk =   0.0033223
        k(  130) = (   0.0966667   0.4516667   0.0000000), wk =   0.0033223
        k(  131) = (   0.1000000   0.4500000   0.0000000), wk =   0.0033223
        k(  132) = (   0.1033333   0.4483333   0.0000000), wk =   0.0033223
        k(  133) = (   0.1066667   0.4466667   0.0000000), wk =   0.0033223
        k(  134) = (   0.1100000   0.4450000   0.0000000), wk =   0.0033223
        k(  135) = (   0.1133333   0.4433333   0.0000000), wk =   0.0033223
        k(  136) = (   0.1166667   0.4416667   0.0000000), wk =   0.0033223
        k(  137) = (   0.1200000   0.4400000   0.0000000), wk =   0.0033223
        k(  138) = (   0.1233333   0.4383333   0.0000000), wk =   0.0033223
        k(  139) = (   0.1266667   0.4366667   0.0000000), wk =   0.0033223
        k(  140) = (   0.1300000   0.4350000   0.0000000), wk =   0.0033223
        k(  141) = (   0.1333333   0.4333333   0.0000000), wk =   0.0033223
        k(  142) = (   0.1366667   0.4316667   0.0000000), wk =   0.0033223
        k(  143) = (   0.1400000   0.4300000   0.0000000), wk =   0.0033223
        k(  144) = (   0.1433333   0.4283333   0.0000000), wk =   0.0033223
        k(  145) = (   0.1466667   0.4266667   0.0000000), wk =   0.0033223
        k(  146) = (   0.1500000   0.4250000   0.0000000), wk =   0.0033223
        k(  147) = (   0.1533333   0.4233333   0.0000000), wk =   0.0033223
        k(  148) = (   0.1566667   0.4216667   0.0000000), wk =   0.0033223
        k(  149) = (   0.1600000   0.4200000   0.0000000), wk =   0.0033223
        k(  150) = (   0.1633333   0.4183333   0.0000000), wk =   0.0033223
        k(  151) = (   0.1666667   0.4166667   0.0000000), wk =   0.0033223
        k(  152) = (   0.1700000   0.4150000   0.0000000), wk =   0.0033223
        k(  153) = (   0.1733333   0.4133333   0.0000000), wk =   0.0033223
        k(  154) = (   0.1766667   0.4116667   0.0000000), wk =   0.0033223
        k(  155) = (   0.1800000   0.4100000   0.0000000), wk =   0.0033223
        k(  156) = (   0.1833333   0.4083333   0.0000000), wk =   0.0033223
        k(  157) = (   0.1866667   0.4066667   0.0000000), wk =   0.0033223
        k(  158) = (   0.1900000   0.4050000   0.0000000), wk =   0.0033223
        k(  159) = (   0.1933333   0.4033333   0.0000000), wk =   0.0033223
        k(  160) = (   0.1966667   0.4016667   0.0000000), wk =   0.0033223
        k(  161) = (   0.2000000   0.4000000   0.0000000), wk =   0.0033223
        k(  162) = (   0.2033333   0.3983333   0.0000000), wk =   0.0033223
        k(  163) = (   0.2066667   0.3966667   0.0000000), wk =   0.0033223
        k(  164) = (   0.2100000   0.3950000   0.0000000), wk =   0.0033223
        k(  165) = (   0.2133333   0.3933333   0.0000000), wk =   0.0033223
        k(  166) = (   0.2166667   0.3916667   0.0000000), wk =   0.0033223
        k(  167) = (   0.2200000   0.3900000   0.0000000), wk =   0.0033223
        k(  168) = (   0.2233333   0.3883333   0.0000000), wk =   0.0033223
        k(  169) = (   0.2266667   0.3866667   0.0000000), wk =   0.0033223
        k(  170) = (   0.2300000   0.3850000   0.0000000), wk =   0.0033223
        k(  171) = (   0.2333333   0.3833333   0.0000000), wk =   0.0033223
        k(  172) = (   0.2366667   0.3816667   0.0000000), wk =   0.0033223
        k(  173) = (   0.2400000   0.3800000   0.0000000), wk =   0.0033223
        k(  174) = (   0.2433333   0.3783333   0.0000000), wk =   0.0033223
        k(  175) = (   0.2466667   0.3766667   0.0000000), wk =   0.0033223
        k(  176) = (   0.2500000   0.3750000   0.0000000), wk =   0.0033223
        k(  177) = (   0.2533333   0.3733333   0.0000000), wk =   0.0033223
        k(  178) = (   0.2566667   0.3716667   0.0000000), wk =   0.0033223
        k(  179) = (   0.2600000   0.3700000   0.0000000), wk =   0.0033223
        k(  180) = (   0.2633333   0.3683333   0.0000000), wk =   0.0033223
        k(  181) = (   0.2666667   0.3666667   0.0000000), wk =   0.0033223
        k(  182) = (   0.2700000   0.3650000   0.0000000), wk =   0.0033223
        k(  183) = (   0.2733333   0.3633333   0.0000000), wk =   0.0033223
        k(  184) = (   0.2766667   0.3616667   0.0000000), wk =   0.0033223
        k(  185) = (   0.2800000   0.3600000   0.0000000), wk =   0.0033223
        k(  186) = (   0.2833333   0.3583333   0.0000000), wk =   0.0033223
        k(  187) = (   0.2866667   0.3566667   0.0000000), wk =   0.0033223
        k(  188) = (   0.2900000   0.3550000   0.0000000), wk =   0.0033223
        k(  189) = (   0.2933333   0.3533333   0.0000000), wk =   0.0033223
        k(  190) = (   0.2966667   0.3516667   0.0000000), wk =   0.0033223
        k(  191) = (   0.3000000   0.3500000   0.0000000), wk =   0.0033223
        k(  192) = (   0.3033333   0.3483333   0.0000000), wk =   0.0033223
        k(  193) = (   0.3066667   0.3466667   0.0000000), wk =   0.0033223
        k(  194) = (   0.3100000   0.3450000   0.0000000), wk =   0.0033223
        k(  195) = (   0.3133333   0.3433333   0.0000000), wk =   0.0033223
        k(  196) = (   0.3166667   0.3416667   0.0000000), wk =   0.0033223
        k(  197) = (   0.3200000   0.3400000   0.0000000), wk =   0.0033223
        k(  198) = (   0.3233333   0.3383333   0.0000000), wk =   0.0033223
        k(  199) = (   0.3266667   0.3366667   0.0000000), wk =   0.0033223
        k(  200) = (   0.3300000   0.3350000   0.0000000), wk =   0.0033223
        k(  201) = (   0.3333333   0.3333333   0.0000000), wk =   0.0033223
        k(  202) = (   0.3300000   0.3300000   0.0000000), wk =   0.0033223
        k(  203) = (   0.3266667   0.3266667   0.0000000), wk =   0.0033223
        k(  204) = (   0.3233333   0.3233333   0.0000000), wk =   0.0033223
        k(  205) = (   0.3200000   0.3200000   0.0000000), wk =   0.0033223
        k(  206) = (   0.3166667   0.3166667   0.0000000), wk =   0.0033223
        k(  207) = (   0.3133333   0.3133333   0.0000000), wk =   0.0033223
        k(  208) = (   0.3100000   0.3100000   0.0000000), wk =   0.0033223
        k(  209) = (   0.3066667   0.3066667   0.0000000), wk =   0.0033223
        k(  210) = (   0.3033333   0.3033333   0.0000000), wk =   0.0033223
        k(  211) = (   0.3000000   0.3000000   0.0000000), wk =   0.0033223
        k(  212) = (   0.2966667   0.2966667   0.0000000), wk =   0.0033223
        k(  213) = (   0.2933333   0.2933333   0.0000000), wk =   0.0033223
        k(  214) = (   0.2900000   0.2900000   0.0000000), wk =   0.0033223
        k(  215) = (   0.2866667   0.2866667   0.0000000), wk =   0.0033223
        k(  216) = (   0.2833333   0.2833333   0.0000000), wk =   0.0033223
        k(  217) = (   0.2800000   0.2800000   0.0000000), wk =   0.0033223
        k(  218) = (   0.2766667   0.2766667   0.0000000), wk =   0.0033223
        k(  219) = (   0.2733333   0.2733333   0.0000000), wk =   0.0033223
        k(  220) = (   0.2700000   0.2700000   0.0000000), wk =   0.0033223
        k(  221) = (   0.2666667   0.2666667   0.0000000), wk =   0.0033223
        k(  222) = (   0.2633333   0.2633333   0.0000000), wk =   0.0033223
        k(  223) = (   0.2600000   0.2600000   0.0000000), wk =   0.0033223
        k(  224) = (   0.2566667   0.2566667   0.0000000), wk =   0.0033223
        k(  225) = (   0.2533333   0.2533333   0.0000000), wk =   0.0033223
        k(  226) = (   0.2500000   0.2500000   0.0000000), wk =   0.0033223
        k(  227) = (   0.2466667   0.2466667   0.0000000), wk =   0.0033223
        k(  228) = (   0.2433333   0.2433333   0.0000000), wk =   0.0033223
        k(  229) = (   0.2400000   0.2400000   0.0000000), wk =   0.0033223
        k(  230) = (   0.2366667   0.2366667   0.0000000), wk =   0.0033223
        k(  231) = (   0.2333333   0.2333333   0.0000000), wk =   0.0033223
        k(  232) = (   0.2300000   0.2300000   0.0000000), wk =   0.0033223
        k(  233) = (   0.2266667   0.2266667   0.0000000), wk =   0.0033223
        k(  234) = (   0.2233333   0.2233333   0.0000000), wk =   0.0033223
        k(  235) = (   0.2200000   0.2200000   0.0000000), wk =   0.0033223
        k(  236) = (   0.2166667   0.2166667   0.0000000), wk =   0.0033223
        k(  237) = (   0.2133333   0.2133333   0.0000000), wk =   0.0033223
        k(  238) = (   0.2100000   0.2100000   0.0000000), wk =   0.0033223
        k(  239) = (   0.2066667   0.2066667   0.0000000), wk =   0.0033223
        k(  240) = (   0.2033333   0.2033333   0.0000000), wk =   0.0033223
        k(  241) = (   0.2000000   0.2000000   0.0000000), wk =   0.0033223
        k(  242) = (   0.1966667   0.1966667   0.0000000), wk =   0.0033223
        k(  243) = (   0.1933333   0.1933333   0.0000000), wk =   0.0033223
        k(  244) = (   0.1900000   0.1900000   0.0000000), wk =   0.0033223
        k(  245) = (   0.1866667   0.1866667   0.0000000), wk =   0.0033223
        k(  246) = (   0.1833333   0.1833333   0.0000000), wk =   0.0033223
        k(  247) = (   0.1800000   0.1800000   0.0000000), wk =   0.0033223
        k(  248) = (   0.1766667   0.1766667   0.0000000), wk =   0.0033223
        k(  249) = (   0.1733333   0.1733333   0.0000000), wk =   0.0033223
        k(  250) = (   0.1700000   0.1700000   0.0000000), wk =   0.0033223
        k(  251) = (   0.1666667   0.1666667   0.0000000), wk =   0.0033223
        k(  252) = (   0.1633333   0.1633333   0.0000000), wk =   0.0033223
        k(  253) = (   0.1600000   0.1600000   0.0000000), wk =   0.0033223
        k(  254) = (   0.1566667   0.1566667   0.0000000), wk =   0.0033223
        k(  255) = (   0.1533333   0.1533333   0.0000000), wk =   0.0033223
        k(  256) = (   0.1500000   0.1500000   0.0000000), wk =   0.0033223
        k(  257) = (   0.1466667   0.1466667   0.0000000), wk =   0.0033223
        k(  258) = (   0.1433333   0.1433333   0.0000000), wk =   0.0033223
        k(  259) = (   0.1400000   0.1400000   0.0000000), wk =   0.0033223
        k(  260) = (   0.1366667   0.1366667   0.0000000), wk =   0.0033223
        k(  261) = (   0.1333333   0.1333333   0.0000000), wk =   0.0033223
        k(  262) = (   0.1300000   0.1300000   0.0000000), wk =   0.0033223
        k(  263) = (   0.1266667   0.1266667   0.0000000), wk =   0.0033223
        k(  264) = (   0.1233333   0.1233333   0.0000000), wk =   0.0033223
        k(  265) = (   0.1200000   0.1200000   0.0000000), wk =   0.0033223
        k(  266) = (   0.1166667   0.1166667   0.0000000), wk =   0.0033223
        k(  267) = (   0.1133333   0.1133333   0.0000000), wk =   0.0033223
        k(  268) = (   0.1100000   0.1100000   0.0000000), wk =   0.0033223
        k(  269) = (   0.1066667   0.1066667   0.0000000), wk =   0.0033223
        k(  270) = (   0.1033333   0.1033333   0.0000000), wk =   0.0033223
        k(  271) = (   0.1000000   0.1000000   0.0000000), wk =   0.0033223
        k(  272) = (   0.0966667   0.0966667   0.0000000), wk =   0.0033223
        k(  273) = (   0.0933333   0.0933333   0.0000000), wk =   0.0033223
        k(  274) = (   0.0900000   0.0900000   0.0000000), wk =   0.0033223
        k(  275) = (   0.0866667   0.0866667   0.0000000), wk =   0.0033223
        k(  276) = (   0.0833333   0.0833333   0.0000000), wk =   0.0033223
        k(  277) = (   0.0800000   0.0800000   0.0000000), wk =   0.0033223
        k(  278) = (   0.0766667   0.0766667   0.0000000), wk =   0.0033223
        k(  279) = (   0.0733333   0.0733333   0.0000000), wk =   0.0033223
        k(  280) = (   0.0700000   0.0700000   0.0000000), wk =   0.0033223
        k(  281) = (   0.0666667   0.0666667   0.0000000), wk =   0.0033223
        k(  282) = (   0.0633333   0.0633333   0.0000000), wk =   0.0033223
        k(  283) = (   0.0600000   0.0600000   0.0000000), wk =   0.0033223
        k(  284) = (   0.0566667   0.0566667   0.0000000), wk =   0.0033223
        k(  285) = (   0.0533333   0.0533333   0.0000000), wk =   0.0033223
        k(  286) = (   0.0500000   0.0500000   0.0000000), wk =   0.0033223
        k(  287) = (   0.0466667   0.0466667   0.0000000), wk =   0.0033223
        k(  288) = (   0.0433333   0.0433333   0.0000000), wk =   0.0033223
        k(  289) = (   0.0400000   0.0400000   0.0000000), wk =   0.0033223
        k(  290) = (   0.0366667   0.0366667   0.0000000), wk =   0.0033223
        k(  291) = (   0.0333333   0.0333333   0.0000000), wk =   0.0033223
        k(  292) = (   0.0300000   0.0300000   0.0000000), wk =   0.0033223
        k(  293) = (   0.0266667   0.0266667   0.0000000), wk =   0.0033223
        k(  294) = (   0.0233333   0.0233333   0.0000000), wk =   0.0033223
        k(  295) = (   0.0200000   0.0200000   0.0000000), wk =   0.0033223
        k(  296) = (   0.0166667   0.0166667   0.0000000), wk =   0.0033223
        k(  297) = (   0.0133333   0.0133333   0.0000000), wk =   0.0033223
        k(  298) = (   0.0100000   0.0100000   0.0000000), wk =   0.0033223
        k(  299) = (   0.0066667   0.0066667   0.0000000), wk =   0.0033223
        k(  300) = (   0.0033333   0.0033333   0.0000000), wk =   0.0033223
        k(  301) = (   0.0000000   0.0000000   0.0000000), wk =   0.0033223

     Dense  grid:    46701 G-vectors     FFT dimensions: (  25,  25, 180)

     Dynamical RAM for                 wfc:       2.14 MB

     Dynamical RAM for     wfc (w. buffer):       2.14 MB

     Dynamical RAM for           str. fact:       0.24 MB

     Dynamical RAM for           local pot:       0.00 MB

     Dynamical RAM for          nlocal pot:       0.92 MB

     Dynamical RAM for                qrad:       5.32 MB

     Dynamical RAM for          rho,v,vnew:       3.14 MB

     Dynamical RAM for           G-vectors:       0.50 MB

     Dynamical RAM for          h,s,v(r/c):       0.95 MB

     Dynamical RAM for          <psi|beta>:       0.14 MB

     Dynamical RAM for                 psi:       4.28 MB

     Dynamical RAM for                hpsi:       4.28 MB

     Dynamical RAM for      wfcinit/wfcrot:       3.33 MB

     Estimated static dynamical RAM per process >      13.77 MB

     Estimated max dynamical RAM per process >      23.42 MB

     Estimated total dynamical RAM >     140.54 MB
 ----2D----2D----2D----2D----2D----2D----2D----2D----2D----2D----2D----2D
  The code is running with the 2D cutoff
  Please refer to:
  Sohier, T., Calandra, M., & Mauri, F. (2017), 
  Density functional perturbation theory for gated two-dimensional heterostructures:
  Theoretical developments and application to flexural phonons in graphene.
  Physical Review B, 96(7), 75448. https://doi.org/10.1103/PhysRevB.96.075448
 ----2D----2D----2D----2D----2D----2D----2D----2D----2D----2D----2D----2D

     The potential is recalculated from file :
     ./TMD.save/charge-density

     Starting wfcs are random

     Band Structure Calculation
     Davidson diagonalization with overlap

     Computing kpt #:     1  of   301
     c_bands:  2 eigenvalues not converged
     total cpu time spent up to now is       12.1 secs

     Computing kpt #:     2  of   301
     c_bands:  2 eigenvalues not converged
     total cpu time spent up to now is       24.1 secs

     Computing kpt #:     3  of   301
     c_bands:  2 eigenvalues not converged
     total cpu time spent up to now is       36.3 secs

     Computing kpt #:     4  of   301
     total cpu time spent up to now is       48.1 secs

     Computing kpt #:     5  of   301
     c_bands:  2 eigenvalues not converged
     total cpu time spent up to now is       60.1 secs

     Computing kpt #:     6  of   301
     c_bands:  2 eigenvalues not converged
     total cpu time spent up to now is       72.0 secs

     Computing kpt #:     7  of   301
     total cpu time spent up to now is       83.6 secs

     Computing kpt #:     8  of   301
     total cpu time spent up to now is       96.0 secs

     Computing kpt #:     9  of   301
     total cpu time spent up to now is      107.4 secs

     Computing kpt #:    10  of   301
     total cpu time spent up to now is      118.3 secs

     Computing kpt #:    11  of   301
     total cpu time spent up to now is      129.5 secs

     Computing kpt #:    12  of   301
     total cpu time spent up to now is      140.6 secs

     Computing kpt #:    13  of   301
     total cpu time spent up to now is      151.1 secs

     Computing kpt #:    14  of   301
     total cpu time spent up to now is      161.7 secs

     Computing kpt #:    15  of   301
     total cpu time spent up to now is      171.9 secs

     Computing kpt #:    16  of   301
     total cpu time spent up to now is      181.6 secs

     Computing kpt #:    17  of   301
     total cpu time spent up to now is      191.3 secs

     Computing kpt #:    18  of   301
     total cpu time spent up to now is      200.9 secs

     Computing kpt #:    19  of   301
     total cpu time spent up to now is      210.4 secs

     Computing kpt #:    20  of   301
     total cpu time spent up to now is      220.4 secs

     Computing kpt #:    21  of   301
     total cpu time spent up to now is      230.6 secs

     Computing kpt #:    22  of   301
     total cpu time spent up to now is      240.2 secs

     Computing kpt #:    23  of   301
     total cpu time spent up to now is      250.0 secs

     Computing kpt #:    24  of   301
     total cpu time spent up to now is      259.8 secs

     Computing kpt #:    25  of   301
     total cpu time spent up to now is      269.4 secs

     Computing kpt #:    26  of   301
     total cpu time spent up to now is      278.7 secs

     Computing kpt #:    27  of   301
     total cpu time spent up to now is      288.0 secs

     Computing kpt #:    28  of   301
     total cpu time spent up to now is      297.1 secs

     Computing kpt #:    29  of   301
     total cpu time spent up to now is      306.4 secs

     Computing kpt #:    30  of   301
     total cpu time spent up to now is      316.2 secs

     Computing kpt #:    31  of   301
     total cpu time spent up to now is      325.8 secs

     Computing kpt #:    32  of   301
     total cpu time spent up to now is      335.3 secs

     Computing kpt #:    33  of   301
     total cpu time spent up to now is      345.0 secs

     Computing kpt #:    34  of   301
     total cpu time spent up to now is      354.2 secs

     Computing kpt #:    35  of   301
     total cpu time spent up to now is      363.3 secs

     Computing kpt #:    36  of   301
     total cpu time spent up to now is      372.8 secs

     Computing kpt #:    37  of   301
     total cpu time spent up to now is      382.5 secs

     Computing kpt #:    38  of   301
     total cpu time spent up to now is      391.8 secs

     Computing kpt #:    39  of   301
     total cpu time spent up to now is      401.2 secs

     Computing kpt #:    40  of   301
     total cpu time spent up to now is      410.6 secs

     Computing kpt #:    41  of   301
     total cpu time spent up to now is      420.0 secs

     Computing kpt #:    42  of   301
     total cpu time spent up to now is      429.1 secs

     Computing kpt #:    43  of   301
     total cpu time spent up to now is      438.4 secs

     Computing kpt #:    44  of   301
     total cpu time spent up to now is      448.0 secs

     Computing kpt #:    45  of   301
     total cpu time spent up to now is      457.5 secs

     Computing kpt #:    46  of   301
     total cpu time spent up to now is      467.6 secs

     Computing kpt #:    47  of   301
     c_bands:  2 eigenvalues not converged
     total cpu time spent up to now is      478.6 secs

     Computing kpt #:    48  of   301
     c_bands:  1 eigenvalues not converged
     total cpu time spent up to now is      489.9 secs

     Computing kpt #:    49  of   301
     total cpu time spent up to now is      500.2 secs

     Computing kpt #:    50  of   301
     c_bands:  2 eigenvalues not converged
     total cpu time spent up to now is      511.1 secs

     Computing kpt #:    51  of   301
     c_bands:  2 eigenvalues not converged
     total cpu time spent up to now is      522.1 secs

     Computing kpt #:    52  of   301
     total cpu time spent up to now is      532.5 secs

     Computing kpt #:    53  of   301
     total cpu time spent up to now is      543.6 secs

     Computing kpt #:    54  of   301
     total cpu time spent up to now is      554.6 secs

     Computing kpt #:    55  of   301
     total cpu time spent up to now is      565.8 secs

     Computing kpt #:    56  of   301
     total cpu time spent up to now is      576.9 secs

     Computing kpt #:    57  of   301
     total cpu time spent up to now is      588.1 secs

     Computing kpt #:    58  of   301
     total cpu time spent up to now is      599.4 secs

     Computing kpt #:    59  of   301
     total cpu time spent up to now is      610.5 secs

     Computing kpt #:    60  of   301
     total cpu time spent up to now is      621.7 secs

     Computing kpt #:    61  of   301
     total cpu time spent up to now is      633.0 secs

     Computing kpt #:    62  of   301
     total cpu time spent up to now is      643.5 secs

     Computing kpt #:    63  of   301
     total cpu time spent up to now is      654.0 secs

     Computing kpt #:    64  of   301
     total cpu time spent up to now is      664.7 secs

     Computing kpt #:    65  of   301
     total cpu time spent up to now is      675.2 secs

     Computing kpt #:    66  of   301
     total cpu time spent up to now is      686.0 secs

     Computing kpt #:    67  of   301
     total cpu time spent up to now is      696.6 secs

     Computing kpt #:    68  of   301
     total cpu time spent up to now is      707.2 secs

     Computing kpt #:    69  of   301
     total cpu time spent up to now is      718.6 secs

     Computing kpt #:    70  of   301
     total cpu time spent up to now is      730.0 secs

     Computing kpt #:    71  of   301
     c_bands:  2 eigenvalues not converged
     total cpu time spent up to now is      741.7 secs

     Computing kpt #:    72  of   301
     total cpu time spent up to now is      753.4 secs

     Computing kpt #:    73  of   301
     total cpu time spent up to now is      765.0 secs

     Computing kpt #:    74  of   301
     total cpu time spent up to now is      776.1 secs

     Computing kpt #:    75  of   301
     total cpu time spent up to now is      787.8 secs

     Computing kpt #:    76  of   301
     c_bands:  2 eigenvalues not converged
     total cpu time spent up to now is      799.7 secs

     Computing kpt #:    77  of   301
     c_bands:  2 eigenvalues not converged
     total cpu time spent up to now is      811.5 secs

     Computing kpt #:    78  of   301
     total cpu time spent up to now is      823.3 secs

     Computing kpt #:    79  of   301
     total cpu time spent up to now is      835.2 secs

     Computing kpt #:    80  of   301
     total cpu time spent up to now is      846.7 secs

     Computing kpt #:    81  of   301
     total cpu time spent up to now is      857.7 secs

     Computing kpt #:    82  of   301
     total cpu time spent up to now is      868.8 secs

     Computing kpt #:    83  of   301
     total cpu time spent up to now is      879.7 secs

     Computing kpt #:    84  of   301
     total cpu time spent up to now is      890.8 secs

     Computing kpt #:    85  of   301
     total cpu time spent up to now is      901.7 secs

     Computing kpt #:    86  of   301
     total cpu time spent up to now is      912.5 secs

     Computing kpt #:    87  of   301
     total cpu time spent up to now is      923.2 secs

     Computing kpt #:    88  of   301
     total cpu time spent up to now is      934.0 secs

     Computing kpt #:    89  of   301
     total cpu time spent up to now is      944.5 secs

     Computing kpt #:    90  of   301
     total cpu time spent up to now is      954.9 secs

     Computing kpt #:    91  of   301
     total cpu time spent up to now is      965.2 secs

     Computing kpt #:    92  of   301
     total cpu time spent up to now is      975.5 secs

     Computing kpt #:    93  of   301
     total cpu time spent up to now is      985.9 secs

     Computing kpt #:    94  of   301
     total cpu time spent up to now is      995.7 secs

     Computing kpt #:    95  of   301
     total cpu time spent up to now is     1006.0 secs

     Computing kpt #:    96  of   301
     total cpu time spent up to now is     1016.2 secs

     Computing kpt #:    97  of   301
     total cpu time spent up to now is     1026.2 secs

     Computing kpt #:    98  of   301
     total cpu time spent up to now is     1036.4 secs

     Computing kpt #:    99  of   301
     total cpu time spent up to now is     1046.4 secs

     Computing kpt #:   100  of   301
     total cpu time spent up to now is     1056.2 secs

     Computing kpt #:   101  of   301
     total cpu time spent up to now is     1066.0 secs

     Computing kpt #:   102  of   301
     total cpu time spent up to now is     1075.9 secs

     Computing kpt #:   103  of   301
     total cpu time spent up to now is     1085.6 secs

     Computing kpt #:   104  of   301
     total cpu time spent up to now is     1095.7 secs

     Computing kpt #:   105  of   301
     total cpu time spent up to now is     1105.5 secs

     Computing kpt #:   106  of   301
     total cpu time spent up to now is     1115.7 secs

     Computing kpt #:   107  of   301
     total cpu time spent up to now is     1125.8 secs

     Computing kpt #:   108  of   301
     total cpu time spent up to now is     1135.7 secs

     Computing kpt #:   109  of   301
     total cpu time spent up to now is     1145.7 secs

     Computing kpt #:   110  of   301
     total cpu time spent up to now is     1155.6 secs

     Computing kpt #:   111  of   301
     total cpu time spent up to now is     1165.7 secs

     Computing kpt #:   112  of   301
     total cpu time spent up to now is     1175.9 secs

     Computing kpt #:   113  of   301
     total cpu time spent up to now is     1185.9 secs

     Computing kpt #:   114  of   301
     total cpu time spent up to now is     1196.3 secs

     Computing kpt #:   115  of   301
     total cpu time spent up to now is     1206.7 secs

     Computing kpt #:   116  of   301
     total cpu time spent up to now is     1216.8 secs

     Computing kpt #:   117  of   301
     total cpu time spent up to now is     1226.9 secs

     Computing kpt #:   118  of   301
     total cpu time spent up to now is     1237.0 secs

     Computing kpt #:   119  of   301
     total cpu time spent up to now is     1247.2 secs

     Computing kpt #:   120  of   301
     total cpu time spent up to now is     1257.4 secs

     Computing kpt #:   121  of   301
     total cpu time spent up to now is     1267.4 secs

     Computing kpt #:   122  of   301
     total cpu time spent up to now is     1277.4 secs

     Computing kpt #:   123  of   301
     total cpu time spent up to now is     1287.3 secs

     Computing kpt #:   124  of   301
     total cpu time spent up to now is     1297.4 secs

     Computing kpt #:   125  of   301
     total cpu time spent up to now is     1307.6 secs

     Computing kpt #:   126  of   301
     total cpu time spent up to now is     1317.7 secs

     Computing kpt #:   127  of   301
     total cpu time spent up to now is     1327.6 secs

     Computing kpt #:   128  of   301
     total cpu time spent up to now is     1337.6 secs

     Computing kpt #:   129  of   301
     total cpu time spent up to now is     1347.7 secs

     Computing kpt #:   130  of   301
     total cpu time spent up to now is     1357.6 secs

     Computing kpt #:   131  of   301
     total cpu time spent up to now is     1368.5 secs

     Computing kpt #:   132  of   301
     total cpu time spent up to now is     1378.5 secs

     Computing kpt #:   133  of   301
     total cpu time spent up to now is     1388.9 secs

     Computing kpt #:   134  of   301
     total cpu time spent up to now is     1399.0 secs

     Computing kpt #:   135  of   301
     total cpu time spent up to now is     1409.4 secs

     Computing kpt #:   136  of   301
     total cpu time spent up to now is     1419.9 secs

     Computing kpt #:   137  of   301
     total cpu time spent up to now is     1430.1 secs

     Computing kpt #:   138  of   301
     total cpu time spent up to now is     1440.5 secs

     Computing kpt #:   139  of   301
     total cpu time spent up to now is     1450.2 secs

     Computing kpt #:   140  of   301
     total cpu time spent up to now is     1460.4 secs

     Computing kpt #:   141  of   301
     total cpu time spent up to now is     1470.5 secs

     Computing kpt #:   142  of   301
     total cpu time spent up to now is     1480.8 secs

     Computing kpt #:   143  of   301
     total cpu time spent up to now is     1491.0 secs

     Computing kpt #:   144  of   301
     total cpu time spent up to now is     1501.6 secs

     Computing kpt #:   145  of   301
     total cpu time spent up to now is     1512.1 secs

     Computing kpt #:   146  of   301
     total cpu time spent up to now is     1523.4 secs

     Computing kpt #:   147  of   301
     total cpu time spent up to now is     1534.1 secs

     Computing kpt #:   148  of   301
     total cpu time spent up to now is     1544.5 secs

     Computing kpt #:   149  of   301
     total cpu time spent up to now is     1555.5 secs

     Computing kpt #:   150  of   301
     total cpu time spent up to now is     1566.2 secs

     Computing kpt #:   151  of   301
     total cpu time spent up to now is     1577.1 secs

     Computing kpt #:   152  of   301
     total cpu time spent up to now is     1587.8 secs

     Computing kpt #:   153  of   301
     total cpu time spent up to now is     1598.3 secs

     Computing kpt #:   154  of   301
     total cpu time spent up to now is     1608.3 secs

     Computing kpt #:   155  of   301
     total cpu time spent up to now is     1618.3 secs

     Computing kpt #:   156  of   301
     total cpu time spent up to now is     1628.4 secs

     Computing kpt #:   157  of   301
     total cpu time spent up to now is     1638.3 secs

     Computing kpt #:   158  of   301
     total cpu time spent up to now is     1648.6 secs

     Computing kpt #:   159  of   301
     total cpu time spent up to now is     1658.7 secs

     Computing kpt #:   160  of   301
     total cpu time spent up to now is     1669.2 secs

     Computing kpt #:   161  of   301
     total cpu time spent up to now is     1679.5 secs

     Computing kpt #:   162  of   301
     total cpu time spent up to now is     1689.7 secs

     Computing kpt #:   163  of   301
     total cpu time spent up to now is     1700.1 secs

     Computing kpt #:   164  of   301
     total cpu time spent up to now is     1710.5 secs

     Computing kpt #:   165  of   301
     total cpu time spent up to now is     1721.3 secs

     Computing kpt #:   166  of   301
     total cpu time spent up to now is     1731.7 secs

     Computing kpt #:   167  of   301
     total cpu time spent up to now is     1742.2 secs

     Computing kpt #:   168  of   301
     total cpu time spent up to now is     1752.9 secs

     Computing kpt #:   169  of   301
     total cpu time spent up to now is     1763.7 secs

     Computing kpt #:   170  of   301
     total cpu time spent up to now is     1774.7 secs

     Computing kpt #:   171  of   301
     total cpu time spent up to now is     1784.6 secs

     Computing kpt #:   172  of   301
     total cpu time spent up to now is     1795.1 secs

     Computing kpt #:   173  of   301
     total cpu time spent up to now is     1805.5 secs

     Computing kpt #:   174  of   301
     total cpu time spent up to now is     1816.3 secs

     Computing kpt #:   175  of   301
     total cpu time spent up to now is     1826.9 secs

     Computing kpt #:   176  of   301
     total cpu time spent up to now is     1837.7 secs

     Computing kpt #:   177  of   301
     total cpu time spent up to now is     1848.6 secs

     Computing kpt #:   178  of   301
     total cpu time spent up to now is     1859.0 secs

     Computing kpt #:   179  of   301
     total cpu time spent up to now is     1869.5 secs

     Computing kpt #:   180  of   301
     total cpu time spent up to now is     1880.0 secs

     Computing kpt #:   181  of   301
     total cpu time spent up to now is     1890.4 secs

     Computing kpt #:   182  of   301
     total cpu time spent up to now is     1900.9 secs

     Computing kpt #:   183  of   301
     total cpu time spent up to now is     1911.4 secs

     Computing kpt #:   184  of   301
     total cpu time spent up to now is     1922.1 secs

     Computing kpt #:   185  of   301
     total cpu time spent up to now is     1932.5 secs

     Computing kpt #:   186  of   301
     total cpu time spent up to now is     1943.1 secs

     Computing kpt #:   187  of   301
     total cpu time spent up to now is     1953.6 secs

     Computing kpt #:   188  of   301
     total cpu time spent up to now is     1963.8 secs

     Computing kpt #:   189  of   301
     total cpu time spent up to now is     1974.9 secs

     Computing kpt #:   190  of   301
     total cpu time spent up to now is     1986.2 secs

     Computing kpt #:   191  of   301
     total cpu time spent up to now is     1996.8 secs

     Computing kpt #:   192  of   301
     total cpu time spent up to now is     2008.0 secs

     Computing kpt #:   193  of   301
     total cpu time spent up to now is     2019.7 secs

     Computing kpt #:   194  of   301
     total cpu time spent up to now is     2031.7 secs

     Computing kpt #:   195  of   301
     total cpu time spent up to now is     2043.7 secs

     Computing kpt #:   196  of   301
     total cpu time spent up to now is     2055.6 secs

     Computing kpt #:   197  of   301
     c_bands:  2 eigenvalues not converged
     total cpu time spent up to now is     2067.9 secs

     Computing kpt #:   198  of   301
     total cpu time spent up to now is     2080.1 secs

     Computing kpt #:   199  of   301
     total cpu time spent up to now is     2091.3 secs

     Computing kpt #:   200  of   301
     total cpu time spent up to now is     2103.3 secs

     Computing kpt #:   201  of   301
     total cpu time spent up to now is     2115.4 secs

     Computing kpt #:   202  of   301
     total cpu time spent up to now is     2127.9 secs

     Computing kpt #:   203  of   301
     total cpu time spent up to now is     2140.5 secs

     Computing kpt #:   204  of   301
     c_bands:  2 eigenvalues not converged
     total cpu time spent up to now is     2153.4 secs

     Computing kpt #:   205  of   301
     total cpu time spent up to now is     2165.4 secs

     Computing kpt #:   206  of   301
     total cpu time spent up to now is     2177.4 secs

     Computing kpt #:   207  of   301
     total cpu time spent up to now is     2189.3 secs

     Computing kpt #:   208  of   301
     total cpu time spent up to now is     2200.8 secs

     Computing kpt #:   209  of   301
     total cpu time spent up to now is     2213.1 secs

     Computing kpt #:   210  of   301
     total cpu time spent up to now is     2224.3 secs

     Computing kpt #:   211  of   301
     total cpu time spent up to now is     2235.7 secs

     Computing kpt #:   212  of   301
     total cpu time spent up to now is     2247.0 secs

     Computing kpt #:   213  of   301
     total cpu time spent up to now is     2258.2 secs

     Computing kpt #:   214  of   301
     total cpu time spent up to now is     2269.0 secs

     Computing kpt #:   215  of   301
     total cpu time spent up to now is     2280.1 secs

     Computing kpt #:   216  of   301
     total cpu time spent up to now is     2291.3 secs

     Computing kpt #:   217  of   301
     total cpu time spent up to now is     2302.3 secs

     Computing kpt #:   218  of   301
     total cpu time spent up to now is     2313.8 secs

     Computing kpt #:   219  of   301
     total cpu time spent up to now is     2324.7 secs

     Computing kpt #:   220  of   301
     total cpu time spent up to now is     2335.6 secs

     Computing kpt #:   221  of   301
     total cpu time spent up to now is     2346.3 secs

     Computing kpt #:   222  of   301
     total cpu time spent up to now is     2356.8 secs

     Computing kpt #:   223  of   301
     total cpu time spent up to now is     2367.0 secs

     Computing kpt #:   224  of   301
     total cpu time spent up to now is     2377.3 secs

     Computing kpt #:   225  of   301
     total cpu time spent up to now is     2387.3 secs

     Computing kpt #:   226  of   301
     total cpu time spent up to now is     2397.4 secs

     Computing kpt #:   227  of   301
     total cpu time spent up to now is     2407.3 secs

     Computing kpt #:   228  of   301
     total cpu time spent up to now is     2417.5 secs

     Computing kpt #:   229  of   301
     total cpu time spent up to now is     2427.7 secs

     Computing kpt #:   230  of   301
     total cpu time spent up to now is     2437.7 secs

     Computing kpt #:   231  of   301
     total cpu time spent up to now is     2447.7 secs

     Computing kpt #:   232  of   301
     total cpu time spent up to now is     2458.1 secs

     Computing kpt #:   233  of   301
     total cpu time spent up to now is     2469.0 secs

     Computing kpt #:   234  of   301
     total cpu time spent up to now is     2479.8 secs

[...]

   -66.7690 -66.7690 -42.5330 -42.5321 -40.0913 -40.0906 -39.9772 -39.9752
   -19.7817 -19.7800 -18.6237 -18.6236 -11.2684 -11.2664  -9.0885  -9.0771
    -8.5567  -8.5552  -8.3120  -8.2878  -7.9073  -7.9008  -6.9524  -6.9301
    -6.0956  -6.0918  -3.4929  -3.4763  -3.4440  -3.3899  -3.2141  -3.1877
    -2.7447  -2.6970  -0.0527  -0.0511   0.0552   0.0553   1.3947   1.3981
     2.0141   2.0151   2.0211   2.0213   4.1449   4.1547   4.1972   4.1981
     4.7946   4.8189   4.8572   4.8573   5.7097   5.7205   5.7224   5.7563
     6.8004   6.8083   7.1153   7.1192   8.0036   8.0074   8.4762   8.4817
     9.3958   9.4286   9.4860   9.5312  10.3625  10.4201  10.6351  10.6502

          k = 0.0733 0.1270 0.0000 (  5806 PWs)   bands (ev):

   -66.7695 -66.7695 -42.5315 -42.5307 -40.0904 -40.0898 -39.9741 -39.9723
   -19.8025 -19.8010 -18.6322 -18.6321 -11.2900 -11.2883  -9.0512  -9.0400
    -8.5176  -8.5145  -8.3317  -8.3076  -7.8685  -7.8614  -6.9657  -6.9444
    -6.0784  -6.0753  -3.4652  -3.4486  -3.4290  -3.3768  -3.1939  -3.1678
    -2.7780  -2.7311  -0.0834  -0.0819   0.0268   0.0268   1.3228   1.3260
     1.9776   1.9784   1.9940   1.9941   4.1095   4.1125   4.1912   4.1952
     4.7883   4.8127   4.8448   4.8450   5.6768   5.7122   5.7733   5.7795
     6.8012   6.8078   7.1202   7.1241   7.9979   8.0015   8.4679   8.4728
     9.4340   9.4540   9.5627   9.6195  10.3662  10.4226  10.6190  10.6336

          k = 0.0700 0.1212 0.0000 (  5810 PWs)   bands (ev):

   -66.7700 -66.7700 -42.5302 -42.5295 -40.0896 -40.0891 -39.9711 -39.9695
   -19.8225 -19.8212 -18.6404 -18.6403 -11.3111 -11.3095  -9.0145  -9.0035
    -8.4790  -8.4735  -8.3509  -8.3259  -7.8312  -7.8237  -6.9801  -6.9599
    -6.0624  -6.0599  -3.4382  -3.4283  -3.4052  -3.3617  -3.1740  -3.1483
    -2.8103  -2.7642  -0.1133  -0.1119  -0.0005  -0.0005   1.2516   1.2545
     1.9435   1.9441   1.9680   1.9681   4.0481   4.0494   4.2070   4.2112
     4.7844   4.8089   4.8309   4.8313   5.6336   5.6665   5.8376   5.8435
     6.8030   6.8085   7.1234   7.1273   7.9926   7.9959   8.4597   8.4639
     9.4683   9.4838   9.6462   9.7061  10.3703  10.4254  10.6032  10.6172

          k = 0.0667 0.1155 0.0000 (  5804 PWs)   bands (ev):

   -66.7705 -66.7705 -42.5288 -42.5282 -40.0889 -40.0884 -39.9681 -39.9668
   -19.8417 -19.8406 -18.6482 -18.6482 -11.3315 -11.3302  -8.9785  -8.9677
    -8.4423  -8.4323  -8.3692  -8.3413  -7.7956  -7.7877  -6.9956  -6.9766
    -6.0476  -6.0455  -3.4129  -3.4126  -3.3752  -3.3438  -3.1544  -3.1292
    -2.8415  -2.7963  -0.1423  -0.1410  -0.0266  -0.0265   1.1815   1.1841
     1.9116   1.9122   1.9431   1.9432   3.9832   3.9838   4.2239   4.2272
     4.7831   4.8077   4.8162   4.8168   5.5901   5.6207   5.9063   5.9118
     6.8054   6.8100   7.1260   7.1298   7.9881   7.9911   8.4516   8.4553
     9.5059   9.5193   9.7297   9.7900  10.3761  10.4296  10.5879  10.6015

          k = 0.0633 0.1097 0.0000 (  5804 PWs)   bands (ev):

   -66.7709 -66.7709 -42.5276 -42.5271 -40.0882 -40.0878 -39.9653 -39.9641
   -19.8601 -19.8591 -18.6557 -18.6557 -11.3512 -11.3501  -8.9433  -8.9328
    -8.4136  -8.3939  -8.3838  -8.3476  -7.7617  -7.7535  -7.0124  -6.9944
    -6.0340  -6.0323  -3.3982  -3.3890  -3.3436  -3.3229  -3.1353  -3.1106
    -2.8716  -2.8273  -0.1704  -0.1692  -0.0514  -0.0514   1.1128   1.1152
     1.8818   1.8823   1.9194   1.9194   3.9177   3.9180   4.2392   4.2415
     4.7842   4.8008   4.8021   4.8093   5.5452   5.5737   5.9783   5.9835
     6.8074   6.8112   7.1271   7.1308   7.9845   7.9871   8.4433   8.4464
     9.5467   9.5589   9.8120   9.8715  10.3835  10.4352  10.5730  10.5861

          k = 0.0600 0.1039 0.0000 (  5796 PWs)   bands (ev):

   -66.7713 -66.7713 -42.5264 -42.5259 -40.0876 -40.0872 -39.9625 -39.9615
   -19.8776 -19.8768 -18.6629 -18.6628 -11.3702 -11.3693  -8.9091  -8.8989
    -8.4065  -8.4050  -8.3480  -8.3313  -7.7295  -7.7211  -7.0302  -7.0134
    -6.0214  -6.0201  -3.3832  -3.3679  -3.3116  -3.2987  -3.1168  -3.0926
    -2.9003  -2.8569  -0.1976  -0.1966  -0.0751  -0.0750   1.0460   1.0481
     1.8540   1.8544   1.8969   1.8969   3.8530   3.8530   4.2524   4.2538
     4.7825   4.7854   4.7931   4.8135   5.5006   5.5272   6.0533   6.0581
     6.8087   6.8120   7.1271   7.1307   7.9818   7.9841   8.4350   8.4376
     9.5921   9.6036   9.8912   9.9493  10.3925  10.4422  10.5583  10.5712

          k = 0.0567 0.0981 0.0000 (  5792 PWs)   bands (ev):

   -66.7717 -66.7717 -42.5252 -42.5248 -40.0870 -40.0867 -39.9599 -39.9591
   -19.8942 -19.8936 -18.6697 -18.6696 -11.3885 -11.3877  -8.8759  -8.8662
    -8.4210  -8.4157  -8.3061  -8.2976  -7.6990  -7.6905  -7.0492  -7.0336
    -6.0099  -6.0089  -3.3680  -3.3488  -3.2796  -3.2720  -3.0991  -3.0754
    -2.9276  -2.8851  -0.2240  -0.2231  -0.0975  -0.0975   0.9812   0.9830
     1.8280   1.8283   1.8754   1.8755   3.7886   3.7886   4.2633   4.2641
     4.7692   4.7699   4.7987   4.8206   5.4570   5.4817   6.1297   6.1343
     6.8091   6.8120   7.1265   7.1299   7.9800   7.9820   8.4264   8.4286
     9.6412   9.6521   9.9670  10.0232  10.4025  10.4499  10.5442  10.5568

          k = 0.0533 0.0924 0.0000 (  5798 PWs)   bands (ev):

   -66.7721 -66.7721 -42.5241 -42.5238 -40.0865 -40.0862 -39.9574 -39.9567
   -19.9100 -19.9094 -18.6761 -18.6761 -11.4059 -11.4053  -8.8439  -8.8346
    -8.4364  -8.4290  -8.2641  -8.2589  -7.6703  -7.6618  -7.0694  -7.0549
    -5.9995  -5.9987  -3.3524  -3.3313  -3.2478  -3.2437  -3.0822  -3.0591
    -2.9534  -2.9117  -0.2495  -0.2487  -0.1187  -0.1186   0.9188   0.9204
     1.8037   1.8039   1.8552   1.8552   3.7255   3.7257   4.2718   4.2720
     4.7544   4.7548   4.8085   4.8300   5.4139   5.4369   6.2072   6.2116
     6.8081   6.8107   7.1247   7.1280   7.9792   7.9808   8.4177   8.4194
     9.6934   9.7038  10.0390  10.0931  10.4133  10.4581  10.5305  10.5430

          k = 0.0500 0.0866 0.0000 (  5804 PWs)   bands (ev):

   -66.7725 -66.7725 -42.5231 -42.5229 -40.0860 -40.0858 -39.9550 -39.9544
   -19.9249 -19.9244 -18.6822 -18.6821 -11.4225 -11.4219  -8.8133  -8.8044
    -8.4509  -8.4429  -8.2219  -8.2185  -7.6434  -7.6349  -7.0907  -7.0772
    -5.9900  -5.9894  -3.3367  -3.3149  -3.2166  -3.2145  -3.0666  -3.0440
    -2.9771  -2.9362  -0.2740  -0.2733  -0.1386  -0.1386   0.8590   0.8603
     1.7810   1.7812   1.8361   1.8361   3.6643   3.6645   4.2779   4.2780
     4.7398   4.7400   4.8210   4.8416   5.3722   5.3936   6.2855   6.2897
     6.8058   6.8082   7.1227   7.1257   7.9791   7.9805   8.4089   8.4103
     9.7484   9.7583  10.1069  10.1587  10.4252  10.4670  10.5170  10.5298

          k = 0.0467 0.0808 0.0000 (  5800 PWs)   bands (ev):

   -66.7728 -66.7728 -42.5221 -42.5219 -40.0855 -40.0854 -39.9527 -39.9522
   -19.9388 -19.9385 -18.6879 -18.6878 -11.4381 -11.4377  -8.7840  -8.7757
    -8.4645  -8.4565  -8.1798  -8.1775  -7.6183  -7.6099  -7.1130  -7.1007
    -5.9814  -5.9809  -3.3210  -3.2993  -3.1864  -3.1852  -3.0527  -3.0316
    -2.9973  -2.9581  -0.2976  -0.2970  -0.1573  -0.1573   0.8020   0.8032
     1.7600   1.7602   1.8183   1.8183   3.6054   3.6056   4.2821   4.2825
     4.7257   4.7259   4.8361   4.8556   5.3325   5.3523   6.3639   6.3680
     6.8024   6.8046   7.1206   7.1235   7.9798   7.9809   8.4002   8.4013
     9.8057   9.8151  10.1712  10.2204  10.4384  10.4762  10.5047  10.5188

          k = 0.0433 0.0751 0.0000 (  5792 PWs)   bands (ev):

   -66.7731 -66.7731 -42.5213 -42.5211 -40.0851 -40.0850 -39.9506 -39.9502
   -19.9519 -19.9516 -18.6932 -18.6932 -11.4528 -11.4525  -8.7564  -8.7486
    -8.4772  -8.4694  -8.1377  -8.1362  -7.5950  -7.5869  -7.1363  -7.1251
    -5.9737  -5.9733  -3.3055  -3.2845  -3.1575  -3.1564  -3.0416  -3.0311
    -3.0046  -2.9757  -0.3202  -0.3197  -0.1748  -0.1747   0.7482   0.7492
     1.7405   1.7407   1.8016   1.8016   3.5489   3.5491   4.2848   4.2853
     4.7123   4.7124   4.8536   4.8718   5.2951   5.3133   6.4419   6.4459
     6.7980   6.8001   7.1180   7.1207   7.9812   7.9820   8.3916   8.3925
     9.8648   9.8737  10.2314  10.2779  10.4523  10.4831  10.4934  10.5116

          k = 0.0400 0.0693 0.0000 (  5782 PWs)   bands (ev):

   -66.7734 -66.7734 -42.5204 -42.5203 -40.0847 -40.0846 -39.9486 -39.9483
   -19.9640 -19.9638 -18.6981 -18.6981 -11.4666 -11.4663  -8.7305  -8.7232
    -8.4887  -8.4815  -8.0958  -8.0949  -7.5734  -7.5657  -7.1606  -7.1505
    -5.9668  -5.9665  -3.2903  -3.2704  -3.1310  -3.1288  -3.0450  -3.0360
    -2.9960  -2.9860  -0.3417  -0.3413  -0.1909  -0.1909   0.6977   0.6984
     1.7225   1.7227   1.7861   1.7861   3.4953   3.4954   4.2860   4.2865
     4.6996   4.6997   4.8724   4.8893   5.2597   5.2763   6.5185   6.5225
     6.7924   6.7947   7.1156   7.1182   7.9830   7.9837   8.3832   8.3839
     9.9244   9.9328  10.2877  10.3314  10.4663  10.4829  10.4838  10.5133

          k = 0.0367 0.0635 0.0000 (  5778 PWs)   bands (ev):

   -66.7737 -66.7737 -42.5197 -42.5195 -40.0844 -40.0843 -39.9467 -39.9465
   -19.9752 -19.9750 -18.7027 -18.7027 -11.4794 -11.4792  -8.7064  -8.6997
    -8.4992  -8.4925  -8.0542  -8.0537  -7.5538  -7.5464  -7.1858  -7.1767
    -5.9606  -5.9604  -3.2758  -3.2573  -3.1088  -3.1045  -3.0582  -3.0367
    -2.9861  -2.9849  -0.3622  -0.3618  -0.2059  -0.2059   0.6506   0.6512
     1.7061   1.7062   1.7718   1.7718   3.4448   3.4449   4.2859   4.2864
     4.6878   4.6879   4.8913   4.9068   5.2268   5.2419   6.5933   6.5975
     6.7859   6.7884   7.1128   7.1151   7.9852   7.9857   8.3751   8.3756
     9.9845   9.9923  10.3390  10.3797  10.4695  10.4765  10.4862  10.5223

          k = 0.0333 0.0577 0.0000 (  5776 PWs)   bands (ev):

   -66.7739 -66.7739 -42.5189 -42.5189 -40.0841 -40.0840 -39.9450 -39.9449
   -19.9855 -19.9853 -18.7069 -18.7069 -11.4911 -11.4909  -8.6842  -8.6783
    -8.5085  -8.5025  -8.0130  -8.0128  -7.5360  -7.5291  -7.2118  -7.2037
    -5.9552  -5.9550  -3.2621  -3.2453  -3.0956  -3.0931  -3.0584  -3.0354
    -2.9797  -2.9742  -0.3814  -0.3811  -0.2195  -0.2195   0.6071   0.6076
     1.6911   1.6911   1.7588   1.7588   3.3978   3.3979   4.2850   4.2855
     4.6769   4.6769   4.9101   4.9241   5.1968   5.2104   6.6645   6.6693
     6.7793   6.7824   7.1104   7.1126   7.9877   7.9880   8.3675   8.3679
    10.0430  10.0504  10.3848  10.4226  10.4616  10.4688  10.5007  10.5338

          k = 0.0300 0.0520 0.0000 (  5780 PWs)   bands (ev):

   -66.7742 -66.7742 -42.5183 -42.5183 -40.0838 -40.0838 -39.9435 -39.9433
   -19.9948 -19.9947 -18.7107 -18.7107 -11.5018 -11.5017  -8.6643  -8.6590
    -8.5166  -8.5113  -7.9723  -7.9723  -7.5201  -7.5137  -7.2383  -7.2313
    -5.9504  -5.9503  -3.2495  -3.2347  -3.0994  -3.0951  -3.0405  -3.0245
    -2.9712  -2.9642  -0.3993  -0.3990  -0.2319  -0.2319   0.5674   0.5678
     1.6775   1.6776   1.7470   1.7470   3.3543   3.3544   4.2835   4.2839
     4.6668   4.6668   4.9290   4.9413   5.1698   5.1818   6.7267   6.7336
     6.7761   6.7814   7.1077   7.1096   7.9902   7.9904   8.3603   8.3605
    10.0998  10.1066  10.4234  10.4485  10.4644  10.4662  10.5161  10.5457

          k = 0.0267 0.0462 0.0000 (  5777 PWs)   bands (ev):

   -66.7744 -66.7744 -42.5177 -42.5177 -40.0836 -40.0836 -39.9421 -39.9420
   -20.0031 -20.0030 -18.7141 -18.7141 -11.5114 -11.5113  -8.6466  -8.6422
    -8.5232  -8.5187  -7.9325  -7.9323  -7.5062  -7.5004  -7.2653  -7.2592
    -5.9462  -5.9462  -3.2382  -3.2257  -3.1087  -3.1016  -3.0191  -3.0076
    -2.9624  -2.9553  -0.4157  -0.4156  -0.2430  -0.2430   0.5317   0.5319
     1.6654   1.6654   1.7364   1.7364   3.3148   3.3149   4.2816   4.2819
     4.6578   4.6578   4.9467   4.9574   5.1461   5.1565   6.7522   6.7557
     6.8117   6.8137   7.1051   7.1068   7.9927   7.9929   8.3536   8.3538
    10.1541  10.1604  10.4408  10.4427  10.4773  10.4983  10.5323  10.5582

          k = 0.0233 0.0404 0.0000 (  5771 PWs)   bands (ev):

   -66.7746 -66.7746 -42.5172 -42.5172 -40.0834 -40.0834 -39.9408 -39.9408
   -20.0105 -20.0104 -18.7171 -18.7171 -11.5199 -11.5199  -8.6315  -8.6279
    -8.5283  -8.5247  -7.8935  -7.8933  -7.4944  -7.4893  -7.2922  -7.2871
    -5.9427  -5.9426  -3.2286  -3.2186  -3.1168  -3.1097  -2.9986  -2.9896
    -2.9541  -2.9473  -0.4307  -0.4306  -0.2528  -0.2528   0.4999   0.5000
     1.6547   1.6547   1.7270   1.7270   3.2794   3.2795   4.2795   4.2797
     4.6497   4.6497   4.9630   4.9718   5.1259   5.1345   6.7492   6.7503
     6.8702   6.8704   7.1028   7.1043   7.9952   7.9953   8.3476   8.3477
    10.2053  10.2111  10.4354  10.4382  10.5064  10.5275  10.5487  10.5706

          k = 0.0200 0.0346 0.0000 (  5771 PWs)   bands (ev):

   -66.7747 -66.7747 -42.5168 -42.5168 -40.0832 -40.0832 -39.9398 -39.9397
   -20.0169 -20.0168 -18.7197 -18.7197 -11.5274 -11.5273  -8.6191  -8.6164
    -8.5317  -8.5290  -7.8557  -7.8555  -7.4849  -7.4806  -7.3186  -7.3144
    -5.9396  -5.9396  -3.2209  -3.2136  -3.1228  -3.1170  -2.9799  -2.9727
    -2.9466  -2.9405  -0.4440  -0.4439  -0.2613  -0.2613   0.4722   0.4723
     1.6455   1.6455   1.7189   1.7189   3.2483   3.2483   4.2774   4.2775
     4.6427   4.6427   4.9772   4.9841   5.1097   5.1164   6.7429   6.7434
     6.9246   6.9253   7.1003   7.1016   7.9975   7.9976   8.3422   8.3423
    10.2501  10.2556  10.4279  10.4323  10.5330  10.5389  10.5485  10.5587

          k = 0.0167 0.0289 0.0000 (  5771 PWs)   bands (ev):

   -66.7749 -66.7749 -42.5164 -42.5164 -40.0830 -40.0830 -39.9388 -39.9388
   -20.0223 -20.0223 -18.7219 -18.7219 -11.5337 -11.5337  -8.6096  -8.6078
    -8.5335  -8.5316  -7.8196  -7.8194  -7.4781  -7.4748  -7.3437  -7.3404
    -5.9371  -5.9371  -3.2153  -3.2105  -3.1265  -3.1225  -2.9635  -2.9577
    -2.9400  -2.9347  -0.4555  -0.4555  -0.2685  -0.2685   0.4487   0.4487
     1.6376   1.6377   1.7120   1.7120   3.2217   3.2217   4.2753   4.2754
     4.6367   4.6367   4.9883   4.9930   5.0976   5.1023   6.7363   6.7366
     6.9732   6.9740   7.0985   7.0995   7.9996   7.9996   8.3377   8.3377
    10.2880  10.2930  10.4196  10.4254  10.4900  10.4906  10.5600  10.5739

          k = 0.0133 0.0231 0.0000 (  5781 PWs)   bands (ev):

   -66.7750 -66.7750 -42.5161 -42.5161 -40.0829 -40.0829 -39.9381 -39.9381
   -20.0268 -20.0267 -18.7237 -18.7237 -11.5389 -11.5388  -8.6028  -8.6018
    -8.5337  -8.5327  -7.7859  -7.7857  -7.4747  -7.4723  -7.3660  -7.3638
    -5.9351  -5.9351  -3.2117  -3.2090  -3.1285  -3.1262  -2.9497  -2.9451
    -2.9344  -2.9301  -0.4652  -0.4652  -0.2744  -0.2744   0.4293   0.4294
     1.6312   1.6312   1.7063   1.7063   3.1996   3.1997   4.2734   4.2735
     4.6318   4.6318   4.9955   4.9983   5.0893   5.0922   6.7303   6.7304
     7.0142   7.0150   7.0966   7.0974   8.0013   8.0013   8.3338   8.3338
    10.3139  10.3181  10.4095  10.4161  10.4511  10.4535  10.5802  10.5885

          k = 0.0100 0.0173 0.0000 (  5779 PWs)   bands (ev):

   -66.7750 -66.7750 -42.5159 -42.5159 -40.0828 -40.0828 -39.9375 -39.9375
   -20.0302 -20.0302 -18.7251 -18.7251 -11.5429 -11.5429  -8.5985  -8.5980
    -8.5330  -8.5325  -7.7556  -7.7555  -7.4754  -7.4741  -7.3837  -7.3825
    -5.9336  -5.9335  -3.2098  -3.2086  -3.1292  -3.1282  -2.9386  -2.9352
    -2.9299  -2.9267  -0.4728  -0.4728  -0.2790  -0.2790   0.4143   0.4143
     1.6263   1.6263   1.7019   1.7019   3.1825   3.1825   4.2719   4.2719
     4.6279   4.6279   4.9997   5.0011   5.0854   5.0867   6.7253   6.7254
     7.0473   7.0479   7.0959   7.0966   8.0027   8.0027   8.3308   8.3308
    10.3209  10.3231  10.4044  10.4084  10.4345  10.4362  10.5973  10.6007

          k = 0.0067 0.0115 0.0000 (  5789 PWs)   bands (ev):

   -66.7751 -66.7751 -42.5157 -42.5157 -40.0828 -40.0828 -39.9371 -39.9371
   -20.0327 -20.0327 -18.7261 -18.7261 -11.5458 -11.5458  -8.5961  -8.5959
    -8.5319  -8.5318  -7.7307  -7.7307  -7.4799  -7.4795  -7.3955  -7.3951
    -5.9325  -5.9325  -3.2090  -3.2087  -3.1293  -3.1290  -2.9304  -2.9282
    -2.9265  -2.9243  -0.4783  -0.4783  -0.2823  -0.2823   0.4035   0.4035
     1.6227   1.6227   1.6988   1.6988   3.1700   3.1700   4.2707   4.2707
     4.6252   4.6252   5.0011   5.0015   5.0835   5.0839   6.7216   6.7216
     7.0705   7.0709   7.0958   7.0962   8.0037   8.0037   8.3286   8.3286
    10.3109  10.3115  10.4098  10.4110  10.4290  10.4297  10.6084  10.6098

          k = 0.0033 0.0058 0.0000 (  5787 PWs)   bands (ev):

   -66.7751 -66.7751 -42.5156 -42.5156 -40.0827 -40.0827 -39.9368 -39.9368
   -20.0342 -20.0342 -18.7267 -18.7267 -11.5475 -11.5475  -8.5949  -8.5949
    -8.5310  -8.5310  -7.7137  -7.7137  -7.4857  -7.4857  -7.4017  -7.4017
    -5.9318  -5.9318  -3.2089  -3.2089  -3.1292  -3.1291  -2.9253  -2.9244
    -2.9240  -2.9231  -0.4817  -0.4817  -0.2843  -0.2843   0.3970   0.3970
     1.6206   1.6206   1.6969   1.6969   3.1625   3.1625   4.2700   4.2700
     4.6235   4.6235   5.0014   5.0014   5.0831   5.0832   6.7193   6.7193
     7.0830   7.0833   7.0981   7.0983   8.0043   8.0043   8.3273   8.3273
    10.2994  10.2995  10.4155  10.4157  10.4288  10.4289  10.6164  10.6166

          k = 0.0000 0.0000 0.0000 (  5789 PWs)   bands (ev):

   -66.7752 -66.7752 -42.5156 -42.5156 -40.0827 -40.0827 -39.9368 -39.9368
   -20.0347 -20.0347 -18.7269 -18.7269 -11.5481 -11.5481  -8.5945  -8.5945
    -8.5307  -8.5307  -7.7076  -7.7076  -7.4884  -7.4884  -7.4036  -7.4036
    -5.9317  -5.9317  -3.2089  -3.2089  -3.1291  -3.1291  -2.9234  -2.9234
    -2.9229  -2.9229  -0.4828  -0.4828  -0.2849  -0.2849   0.3947   0.3947
     1.6198   1.6198   1.6963   1.6963   3.1600   3.1600   4.2697   4.2697
     4.6230   4.6230   5.0016   5.0016   5.0834   5.0834   6.7182   6.7182
     7.0860   7.0860   7.1002   7.1002   8.0045   8.0045   8.3268   8.3268
    10.2949  10.2949  10.4160  10.4160  10.4287  10.4287  10.6196  10.6196

     Writing all to output data dir ./TMD.save/

     init_run     :      0.09s CPU      0.11s WALL (       1 calls)
     electrons    :   3078.94s CPU   3139.68s WALL (       1 calls)

     Called by init_run:
     wfcinit      :      0.00s CPU      0.00s WALL (       1 calls)
     wfcinit:wfcr :     32.01s CPU     33.10s WALL (     301 calls)
     potinit      :      0.01s CPU      0.02s WALL (       1 calls)
     hinit0       :      0.05s CPU      0.05s WALL (       1 calls)

     Called by electrons:
     c_bands      :   3078.93s CPU   3139.66s WALL (       1 calls)
     v_of_rho     :      0.01s CPU      0.01s WALL (       1 calls)
     v_h          :      0.00s CPU      0.00s WALL (       1 calls)
     v_xc         :      0.01s CPU      0.01s WALL (       1 calls)

     Called by c_bands:
     init_us_2    :      0.16s CPU      0.22s WALL (     301 calls)
     init_us_2:cp :      0.16s CPU      0.22s WALL (     301 calls)
     cegterg      :   3042.80s CPU   3101.65s WALL (    1388 calls)

     Called by sum_band:

     Called by *egterg:
     cdiaghg      :    177.74s CPU    178.06s WALL (   26035 calls)
     cegterg:over :    510.19s CPU    513.02s WALL (   25734 calls)
     cegterg:upda :    259.82s CPU    260.18s WALL (   25734 calls)
     cegterg:last :    750.25s CPU    750.68s WALL (   14709 calls)
     h_psi        :   1022.19s CPU   1077.89s WALL (   27423 calls)
     g_psi        :      6.52s CPU      6.57s WALL (   25734 calls)

     Called by h_psi:
     h_psi:calbec :    133.20s CPU    136.97s WALL (   27423 calls)
     vloc_psi     :    773.92s CPU    825.37s WALL (   27423 calls)
     add_vuspsi   :     89.39s CPU     89.83s WALL (   27423 calls)

     General routines
     calbec       :    133.08s CPU    136.89s WALL (   27423 calls)
     fft          :      0.01s CPU      0.01s WALL (      13 calls)
     fftw         :    681.93s CPU    726.74s WALL ( 4086560 calls)
     davcio       :      0.42s CPU      1.35s WALL (     602 calls)

     Parallel routines

     PWSCF        :  51m20.13s CPU  52m25.94s WALL


   This run was terminated on:  11:50:42  11Oct2023            

=------------------------------------------------------------------------------=
   JOB DONE.
=------------------------------------------------------------------------------=
