
     Program BANDS v.7.2 starts on 19Oct2023 at 13:34:40 

     This program is part of the open-source Quantum ESPRESSO suite
     for quantum simulation of materials; please cite
         "P. Giannozzi et al., J. Phys.:Condens. Matter 21 395502 (2009);
         "P. Giannozzi et al., J. Phys.:Condens. Matter 29 465901 (2017);
         "P. Giannozzi et al., J. Chem. Phys. 152 154105 (2020);
          URL http://www.quantum-espresso.org", 
     in publications or presentations arising from this work. More details at
     http://www.quantum-espresso.org/quote

     Parallel version (MPI), running on     6 processors

     MPI processes distributed on     1 nodes
     R & G space division:  proc/nbgrp/npool/nimage =       6
     6528 MiB available memory on the printing compute node when the environment starts


     Reading xml data from directory:

     ./TMD.save/
Error reading attribute index: expected integer, found *

     IMPORTANT: XC functional enforced from input :
     Exchange-correlation= PBE
                           (   1   4   3   4   0   0   0)
     Any further DFT definition will be discarded
     Please, verify this is what you really want


     Parallelization info
     --------------------
     sticks:   dense  smooth     PW     G-vecs:    dense   smooth      PW
     Min          65      65     20                 7777     7777    1338
     Max          67      67     21                 7793     7793    1367
     Sum         397     397    121                46701    46701    8077

     Using Slab Decomposition

 ----2D----2D----2D----2D----2D----2D----2D----2D----2D----2D----2D----2D
  The code is running with the 2D cutoff
  Please refer to:
  Sohier, T., Calandra, M., & Mauri, F. (2017), 
  Density functional perturbation theory for gated two-dimensional heterostructures:
  Theoretical developments and application to flexural phonons in graphene.
  Physical Review B, 96(7), 75448. https://doi.org/10.1103/PhysRevB.96.075448
 ----2D----2D----2D----2D----2D----2D----2D----2D----2D----2D----2D----2D
     Reading collected, re-writing distributed wavefunctions
     high-symmetry point:  0.0000 0.0000 0.0000   x coordinate   0.0000
     high-symmetry point:  0.0000 0.5774 0.0000   x coordinate   0.5774
     high-symmetry point:  0.3333 0.5774 0.0000   x coordinate   0.9107
     high-symmetry point:  0.0000 0.0000 0.0000   x coordinate   1.5774

     Plottable bands (eV) written to file bands.dat.gnu
     Bands written to file bands.dat

 **************************************************************************

                    xk=(   0.00000,   0.00000,   0.00000  )

     double point group D_3h (-62m)
     there are  9 classes and  3 irreducible representations
     the character table:

       E     -E    2C3   -2C3   3C2'  s_h  2S3   -2S3   3s_v
                               -3C2' -s_h'             -3s_v
G_7    2.00 -2.00  1.00 -1.00  0.00  0.00  1.73 -1.73  0.00
G_8    2.00 -2.00  1.00 -1.00  0.00  0.00 -1.73  1.73  0.00
G_9    2.00 -2.00 -2.00  2.00  0.00  0.00  0.00  0.00  0.00

     the symmetry operations in each class and the name of the first element:

     E             1
                                                                 
     -E           -1
                                                                 
     2C3           3    4
                                                                 
     -2C3         -3   -4
                                                                 
      3C2'-3C2'    2   -6    5   -2   -5    6
                                                                 
      s_h -s_h'    7   -7
                                                                 
     2S3           9   10
                                                                 
     -2S3         -9  -10
                                                                 
      3s_v-3s_v    8   -8  -11  -12   11   12
                                                                 

     Band symmetry, D_3h (-62m) double point group:

     e(  1 -  2) =    -66.77516  eV     2   --> G_7            
     e(  3 -  4) =    -42.51560  eV     2   --> G_8            
     e(  5 -  6) =    -40.08272  eV     2   --> G_8            
     e(  7 -  8) =    -39.93675  eV     2   --> G_9            
     e(  9 - 10) =    -20.03468  eV     2   --> G_7            
     e( 11 - 12) =    -18.72695  eV     2   --> G_8            
     e( 13 - 14) =    -11.54812  eV     2   --> G_7            
     e( 15 - 16) =     -8.59454  eV     2   --> G_9            
     e( 17 - 18) =     -8.53067  eV     2   --> G_8            
     e( 19 - 20) =     -7.70761  eV     2   --> G_8            
     e( 21 - 22) =     -7.48838  eV     2   --> G_7            
     e( 23 - 24) =     -7.40357  eV     2   --> G_9            
     e( 25 - 26) =     -5.93165  eV     2   --> G_7            
     e( 27 - 28) =     -3.20891  eV     2   --> G_7            
     e( 29 - 30) =     -3.12911  eV     2   --> G_9            
     e( 31 - 32) =     -2.92336  eV     2   --> G_8            
     e( 33 - 34) =     -2.92293  eV     2   --> G_9            
     e( 35 - 36) =     -0.48279  eV     2   --> G_7            
     e( 37 - 38) =     -0.28493  eV     2   --> G_8            
     e( 39 - 40) =      0.39471  eV     2   --> G_7            
     e( 41 - 42) =      1.61982  eV     2   --> G_7            
     e( 43 - 44) =      1.69628  eV     2   --> G_8            
     e( 45 - 46) =      3.16004  eV     2   --> G_8            
     e( 47 - 48) =      4.26972  eV     2   --> G_7            
     e( 49 - 50) =      4.62297  eV     2   --> G_8            
     e( 51 - 52) =      5.00163  eV     2   --> G_8            
     e( 53 - 54) =      5.08339  eV     2   --> G_9            
     e( 55 - 56) =      6.71820  eV     2   --> G_7            
     e( 57 - 58) =      7.08602  eV     2   --> G_7            
     e( 59 - 60) =      7.10016  eV     2   --> G_9            
     e( 61 - 62) =      8.00453  eV     2   --> G_7            
     e( 63 - 64) =      8.32682  eV     2   --> G_8            
     e( 65 - 66) =     10.29493  eV     2   --> G_8            
     e( 67 - 68) =     10.41601  eV     2   --> G_7            
     e( 69 - 70) =     10.42871  eV     2   --> G_9            
     e( 71 - 72) =     10.61961  eV     2   --> G_8            

 **************************************************************************

 **************************************************************************

                    xk=(   0.00000,   0.00577,   0.00000  )

     double point group C_2v (mm2) 
     there are  5 classes and  1 irreducible representations
     the character table:

       E     -E     C2    s_v   s_v'
                   -C2   -s_v  -s_v'
G_5    2.00 -2.00  0.00  0.00  0.00

     the symmetry operations in each class and the name of the first element:

     E             1
                                                                 
     -E           -1
                                                                 
      C2  -C2      2   -2
                                                                 
      s_v -s_v     3   -3
                                                                 
      s_v'-s_v'    4   -4
                                                                 

     Band symmetry, C_2v (mm2)  double point group:

     e(  1 -  2) =    -66.77515  eV     2   --> G_5  D_5       
     e(  3 -  4) =    -42.51562  eV     2   --> G_5  D_5       
     e(  5 -  6) =    -40.08273  eV     2   --> G_5  D_5       
     e(  7 -  8) =    -39.93681  eV     2   --> G_5  D_5       
     e(  9 - 10) =    -20.03431  eV     2   --> G_5  D_5       
     e( 11 - 12) =    -18.72680  eV     2   --> G_5  D_5       
     e( 13 - 14) =    -11.54768  eV     2   --> G_5  D_5       
     e( 15 - 16) =     -8.59479  eV     2   --> G_5  D_5       
     e( 17 - 18) =     -8.53092  eV     2   --> G_5  D_5       
     e( 19 - 20) =     -7.71222  eV     2   --> G_5  D_5       
     e( 21 - 22) =     -7.48633  eV     2   --> G_5  D_5       
     e( 23 - 24) =     -7.40217  eV     2   --> G_5  D_5       
     e( 25 - 26) =     -5.93178  eV     2   --> G_5  D_5       
     e( 27 - 28) =     -3.20888  eV     2   --> G_5  D_5       
     e( 29 - 30) =     -3.12914  eV     2   --> G_5  D_5       
     e( 31 - 32) =     -2.92459  eV     2   --> G_5  D_5       
     e( 33 - 34) =     -2.92330  eV     2   --> G_5  D_5       
     e( 35 - 36) =     -0.48195  eV     2   --> G_5  D_5       
     e( 37 - 38) =     -0.28443  eV     2   --> G_5  D_5       
     e( 39 - 40) =      0.39642  eV     2   --> G_5  D_5       
     e( 41 - 42) =      1.62037  eV     2   --> G_5  D_5       
     e( 43 - 44) =      1.69675  eV     2   --> G_5  D_5       
     e( 45 - 46) =      3.16190  eV     2   --> G_5  D_5       
     e( 47 - 48) =      4.26993  eV     2   --> G_5  D_5       
     e( 49 - 50) =      4.62339  eV     2   --> G_5  D_5       
     e( 51 - 52) =      5.00147  eV     2   --> G_5  D_5       
     e( 53 - 54) =      5.08322  eV     2   --> G_5  D_5       
     e( 55 - 56) =      6.71899  eV     2   --> G_5  D_5       
     e( 57 - 58) =      7.08392  eV     2   --> G_5  D_5       
     e( 59 - 60) =      7.09855  eV     2   --> G_5  D_5       
     e( 61 - 62) =      8.00438  eV     2   --> G_5  D_5       
     e( 63 - 64) =      8.32715  eV     2   --> G_5  D_5       
     e( 65 - 66) =     10.29835  eV     2   --> G_5  D_5       
     e( 67 - 68) =     10.41571  eV     2   --> G_5  D_5       
     e( 69 - 70) =     10.42854  eV     2   --> G_5  D_5       
     e( 71 - 72) =     10.61710  eV     2   --> G_5  D_5       

 **************************************************************************

 **************************************************************************

                    xk=(   0.00000,   0.01155,   0.00000  )

     Band symmetry, C_2v (mm2)  double point group:

     e(  1 -  2) =    -66.77512  eV     2   --> G_5  D_5       
     e(  3 -  4) =    -42.51570  eV     2   --> G_5  D_5       
     e(  5 -  6) =    -40.08276  eV     2   --> G_5  D_5       
     e(  7 -  8) =    -39.93700  eV     2   --> G_5  D_5       
     e(  9 - 10) =    -20.03319  eV     2   --> G_5  D_5       
     e( 11 - 12) =    -18.72634  eV     2   --> G_5  D_5       
     e( 13 - 14) =    -11.54637  eV     2   --> G_5  D_5       
     e( 15 - 16) =     -8.59559  eV     2   --> G_5  D_5       
     e( 17 - 18) =     -8.53156  eV     2   --> G_5  D_5       
     e( 19 - 20) =     -7.72523  eV     2   --> G_5  D_5       
     e( 21 - 22) =     -7.48140  eV     2   --> G_5  D_5       
     e( 23 - 24) =     -7.39755  eV     2   --> G_5  D_5       
     e( 25 - 26) =     -5.93224  eV     2   --> G_5  D_5       
     e( 27 - 28) =     -3.20885  eV     2   --> G_5  D_5       
     e( 29 - 30) =     -3.12915  eV     2   --> G_5  D_5       
     e( 31 - 32) =     -2.92808  eV     2   --> G_5  D_5       
     e( 33 - 34) =     -2.92457  eV     2   --> G_5  D_5       
     e( 35 - 36) =     -0.47944  eV     2   --> G_5  D_5       
     e( 37 - 38) =     -0.28295  eV     2   --> G_5  D_5       
     e( 39 - 40) =      0.40133  eV     2   --> G_5  D_5       
     e( 41 - 42) =      1.62198  eV     2   --> G_5  D_5       
     e( 43 - 44) =      1.69816  eV     2   --> G_5  D_5       
     e( 45 - 46) =      3.16754  eV     2   --> G_5  D_5       
     e( 47 - 48) =      4.27050  eV     2   --> G_5  D_5       
     e( 49 - 50) =      4.62463  eV     2   --> G_5  D_5       
     e( 51 - 52) =      5.00152  eV     2   --> G_5  D_5       
     e( 53 - 54) =      5.08358  eV     2   --> G_5  D_5       
     e( 55 - 56) =      6.72084  eV     2   --> G_5  D_5       
     e( 57 - 58) =      7.07532  eV     2   --> G_5  D_5       
     e( 59 - 60) =      7.09637  eV     2   --> G_5  D_5       
     e( 61 - 62) =      8.00392  eV     2   --> G_5  D_5       
     e( 63 - 64) =      8.32814  eV     2   --> G_5  D_5       
     e( 65 - 66) =     10.30762  eV     2   --> G_5  D_5       
     e( 67 - 68) =     10.41237  eV     2   --> G_5  D_5       
     e( 69 - 70) =     10.42870  eV     2   --> G_5  D_5       
     e( 71 - 72) =     10.61175  eV     2   --> G_5  D_5       

 **************************************************************************

 **************************************************************************

                    xk=(   0.00000,   0.01732,   0.00000  )

     Band symmetry, C_2v (mm2)  double point group:

     e(  1 -  2) =    -66.77508  eV     2   --> G_5  D_5       
     e(  3 -  4) =    -42.51582  eV     2   --> G_5  D_5       
     e(  5 -  6) =    -40.08281  eV     2   --> G_5  D_5       
     e(  7 -  8) =    -39.93732  eV     2   --> G_5  D_5       
     e(  9 - 10) =    -20.03133  eV     2   --> G_5  D_5       
     e( 11 - 12) =    -18.72559  eV     2   --> G_5  D_5       
     e( 13 - 14) =    -11.54420  eV     2   --> G_5  D_5       
     e( 15 - 16) =     -8.59718  eV     2   --> G_5  D_5       
     e( 17 - 18) =     -8.53240  eV     2   --> G_5  D_5       
     e( 19 - 20) =     -7.74480  eV     2   --> G_5  D_5       
     e( 21 - 22) =     -7.47636  eV     2   --> G_5  D_5       
     e( 23 - 24) =     -7.38878  eV     2   --> G_5  D_5       
     e( 25 - 26) =     -5.93306  eV     2   --> G_5  D_5       
     e( 27 - 28) =     -3.20898  eV     2   --> G_5  D_5       
     e( 29 - 30) =     -3.12894  eV     2   --> G_5  D_5       
     e( 31 - 32) =     -2.93382  eV     2   --> G_5  D_5       
     e( 33 - 34) =     -2.92670  eV     2   --> G_5  D_5       
     e( 35 - 36) =     -0.47528  eV     2   --> G_5  D_5       
     e( 37 - 38) =     -0.28049  eV     2   --> G_5  D_5       
     e( 39 - 40) =      0.40942  eV     2   --> G_5  D_5       
     e( 41 - 42) =      1.62465  eV     2   --> G_5  D_5       
     e( 43 - 44) =      1.70052  eV     2   --> G_5  D_5       
     e( 45 - 46) =      3.17684  eV     2   --> G_5  D_5       
     e( 47 - 48) =      4.27139  eV     2   --> G_5  D_5       
     e( 49 - 50) =      4.62669  eV     2   --> G_5  D_5       
     e( 51 - 52) =      5.00108  eV     2   --> G_5  D_5       
     e( 53 - 54) =      5.08488  eV     2   --> G_5  D_5       
     e( 55 - 56) =      6.72369  eV     2   --> G_5  D_5       
     e( 57 - 58) =      7.05825  eV     2   --> G_5  D_5       
     e( 59 - 60) =      7.09576  eV     2   --> G_5  D_5       
     e( 61 - 62) =      8.00315  eV     2   --> G_5  D_5       
     e( 63 - 64) =      8.32979  eV     2   --> G_5  D_5       
     e( 65 - 66) =     10.31840  eV     2   --> G_5  D_5       
     e( 67 - 68) =     10.40884  eV     2   --> G_5  D_5       
     e( 69 - 70) =     10.43078  eV     2   --> G_5  D_5       
     e( 71 - 72) =     10.60328  eV     2   --> G_5  D_5       

 **************************************************************************

 **************************************************************************

                    xk=(   0.00000,   0.02309,   0.00000  )

     Band symmetry, C_2v (mm2)  double point group:

     e(  1 -  2) =    -66.77501  eV     2   --> G_5  D_5       
     e(  3 -  4) =    -42.51600  eV     2   --> G_5  D_5       
     e(  5 -  6) =    -40.08287  eV     2   --> G_5  D_5       
     e(  7 -  8) =    -39.93775  eV     2   --> G_5  D_5       
     e(  9 - 10) =    -20.02873  eV     2   --> G_5  D_5       
     e( 11 - 12) =    -18.72453  eV     2   --> G_5  D_5       
     e( 13 - 14) =    -11.54116  eV     2   --> G_5  D_5       
     e( 15 - 16) =     -8.59989  eV     2   --> G_5  D_5       
     e( 17 - 18) =     -8.53307  eV     2   --> G_5  D_5       
     e( 19 - 20) =     -7.76906  eV     2   --> G_5  D_5       
     e( 21 - 22) =     -7.47360  eV     2   --> G_5  D_5       
     e( 23 - 24) =     -7.37535  eV     2   --> G_5  D_5       
     e( 25 - 26) =     -5.93421  eV     2   --> G_5  D_5       
     e( 27 - 28) =     -3.20957  eV     2   --> G_5  D_5       
     e( 29 - 30) =     -3.12821  eV     2   --> G_5  D_5       
     e( 31 - 32) =     -2.94177  eV     2   --> G_5  D_5       
     e( 33 - 34) =     -2.92969  eV     2   --> G_5  D_5       
     e( 35 - 36) =     -0.46952  eV     2   --> G_5  D_5       
     e( 37 - 38) =     -0.27704  eV     2   --> G_5  D_5       
     e( 39 - 40) =      0.42075  eV     2   --> G_5  D_5       
     e( 41 - 42) =      1.62840  eV     2   --> G_5  D_5       
     e( 43 - 44) =      1.70381  eV     2   --> G_5  D_5       
     e( 45 - 46) =      3.18981  eV     2   --> G_5  D_5       
     e( 47 - 48) =      4.27260  eV     2   --> G_5  D_5       
     e( 49 - 50) =      4.62958  eV     2   --> G_5  D_5       
     e( 51 - 52) =      4.99926  eV     2   --> G_5  D_5       
     e( 53 - 54) =      5.08793  eV     2   --> G_5  D_5       
     e( 55 - 56) =      6.72759  eV     2   --> G_5  D_5       
     e( 57 - 58) =      7.03344  eV     2   --> G_5  D_5       
     e( 59 - 60) =      7.09643  eV     2   --> G_5  D_5       
     e( 61 - 62) =      8.00209  eV     2   --> G_5  D_5       
     e( 63 - 64) =      8.33208  eV     2   --> G_5  D_5       
     e( 65 - 66) =     10.32019  eV     2   --> G_5  D_5       
     e( 67 - 68) =     10.41604  eV     2   --> G_5  D_5       
     e( 69 - 70) =     10.43477  eV     2   --> G_5  D_5       
     e( 71 - 72) =     10.59161  eV     2   --> G_5  D_5       

 **************************************************************************

 **************************************************************************

                    xk=(   0.00000,   0.02887,   0.00000  )

     Band symmetry, C_2v (mm2)  double point group:

     e(  1 -  2) =    -66.77493  eV     2   --> G_5  D_5       
     e(  3 -  4) =    -42.51622  eV     2   --> G_5  D_5       
     e(  5 -  6) =    -40.08296  eV     2   --> G_5  D_5       
     e(  7 -  8) =    -39.93831  eV     2   --> G_5  D_5       
     e(  9 - 10) =    -20.02539  eV     2   --> G_5  D_5       
     e( 11 - 12) =    -18.72317  eV     2   --> G_5  D_5       
     e( 13 - 14) =    -11.53727  eV     2   --> G_5  D_5       
     e( 15 - 16) =     -8.60413  eV     2   --> G_5  D_5       
     e( 17 - 18) =     -8.53314  eV     2   --> G_5  D_5       
     e( 19 - 20) =     -7.79660  eV     2   --> G_5  D_5       
     e( 21 - 22) =     -7.47397  eV     2   --> G_5  D_5       
     e( 23 - 24) =     -7.35782  eV     2   --> G_5  D_5       
     e( 25 - 26) =     -5.93571  eV     2   --> G_5  D_5       
     e( 27 - 28) =     -3.21099  eV     2   --> G_5  D_5       
     e( 29 - 30) =     -3.12660  eV     2   --> G_5  D_5       
     e( 31 - 32) =     -2.95184  eV     2   --> G_5  D_5       
     e( 33 - 34) =     -2.93351  eV     2   --> G_5  D_5       
     e( 35 - 36) =     -0.46221  eV     2   --> G_5  D_5       
     e( 37 - 38) =     -0.27261  eV     2   --> G_5  D_5       
     e( 39 - 40) =      0.43526  eV     2   --> G_5  D_5       
     e( 41 - 42) =      1.63319  eV     2   --> G_5  D_5       
     e( 43 - 44) =      1.70805  eV     2   --> G_5  D_5       
     e( 45 - 46) =      3.20639  eV     2   --> G_5  D_5       
     e( 47 - 48) =      4.27404  eV     2   --> G_5  D_5       
     e( 49 - 50) =      4.63327  eV     2   --> G_5  D_5       
     e( 51 - 52) =      4.99514  eV     2   --> G_5  D_5       
     e( 53 - 54) =      5.09330  eV     2   --> G_5  D_5       
     e( 55 - 56) =      6.73223  eV     2   --> G_5  D_5       
     e( 57 - 58) =      7.00174  eV     2   --> G_5  D_5       
     e( 59 - 60) =      7.09780  eV     2   --> G_5  D_5       
     e( 61 - 62) =      8.00076  eV     2   --> G_5  D_5       
     e( 63 - 64) =      8.33498  eV     2   --> G_5  D_5       
     e( 65 - 66) =     10.30490  eV     2   --> G_5  D_5       
     e( 67 - 68) =     10.43844  eV     2   --> G_5  D_5       
     e( 69 - 70) =     10.44417  eV     2   --> G_5  D_5       
     e( 71 - 72) =     10.57805  eV     2   --> G_5  D_5       

 **************************************************************************

 **************************************************************************

                    xk=(   0.00000,   0.03464,   0.00000  )

     Band symmetry, C_2v (mm2)  double point group:

     e(  1 -  2) =    -66.77483  eV     2   --> G_5  D_5       
     e(  3 -  4) =    -42.51650  eV     2   --> G_5  D_5       
     e(  5 -  6) =    -40.08307  eV     2   --> G_5  D_5       
     e(  7 -  8) =    -39.93900  eV     2   --> G_5  D_5       
     e(  9 - 10) =    -20.02131  eV     2   --> G_5  D_5       
     e( 11 - 12) =    -18.72150  eV     2   --> G_5  D_5       
     e( 13 - 14) =    -11.53252  eV     2   --> G_5  D_5       
     e( 15 - 16) =     -8.61024  eV     2   --> G_5  D_5       
     e( 17 - 18) =     -8.53225  eV     2   --> G_5  D_5       
     e( 19 - 20) =     -7.82647  eV     2   --> G_5  D_5       
     e( 21 - 22) =     -7.47721  eV     2   --> G_5  D_5       
     e( 23 - 24) =     -7.33740  eV     2   --> G_5  D_5       
     e( 25 - 26) =     -5.93756  eV     2   --> G_5  D_5       
     e( 27 - 28) =     -3.21357  eV     2   --> G_5  D_5       
     e( 29 - 30) =     -3.12378  eV     2   --> G_5  D_5       
     e( 31 - 32) =     -2.96391  eV     2   --> G_5  D_5       
     e( 33 - 34) =     -2.93813  eV     2   --> G_5  D_5       
     e( 35 - 36) =     -0.45341  eV     2   --> G_5  D_5       
     e( 37 - 38) =     -0.26720  eV     2   --> G_5  D_5       
     e( 39 - 40) =      0.45296  eV     2   --> G_5  D_5       
     e( 41 - 42) =      1.63907  eV     2   --> G_5  D_5       
     e( 43 - 44) =      1.71322  eV     2   --> G_5  D_5       
     e( 45 - 46) =      3.22648  eV     2   --> G_5  D_5       
     e( 47 - 48) =      4.27571  eV     2   --> G_5  D_5       
     e( 49 - 50) =      4.63777  eV     2   --> G_5  D_5       
     e( 51 - 52) =      4.98867  eV     2   --> G_5  D_5       
     e( 53 - 54) =      5.10209  eV     2   --> G_5  D_5       
     e( 55 - 56) =      6.73762  eV     2   --> G_5  D_5       
     e( 57 - 58) =      6.96411  eV     2   --> G_5  D_5       
     e( 59 - 60) =      7.09937  eV     2   --> G_5  D_5       
     e( 61 - 62) =      7.99918  eV     2   --> G_5  D_5       
     e( 63 - 64) =      8.33847  eV     2   --> G_5  D_5       
     e( 65 - 66) =     10.27693  eV     2   --> G_5  D_5       
     e( 67 - 68) =     10.44690  eV     2   --> G_5  D_5       
     e( 69 - 70) =     10.48332  eV     2   --> G_5  D_5       
     e( 71 - 72) =     10.56225  eV     2   --> G_5  D_5       

 **************************************************************************

 **************************************************************************

                    xk=(   0.00000,   0.04041,   0.00000  )

     Band symmetry, C_2v (mm2)  double point group:

     e(  1 -  2) =    -66.77471  eV     2   --> G_5  D_5       
     e(  3 -  4) =    -42.51682  eV     2   --> G_5  D_5       
     e(  5 -  6) =    -40.08320  eV     2   --> G_5  D_5       
     e(  7 -  8) =    -39.93980  eV     2   --> G_5  D_5       
     e(  9 - 10) =    -20.01649  eV     2   --> G_5  D_5       
     e( 11 - 12) =    -18.71954  eV     2   --> G_5  D_5       
     e( 13 - 14) =    -11.52692  eV     2   --> G_5  D_5       
     e( 15 - 16) =     -8.61845  eV     2   --> G_5  D_5       
     e( 17 - 18) =     -8.53016  eV     2   --> G_5  D_5       
     e( 19 - 20) =     -7.85803  eV     2   --> G_5  D_5       
     e( 21 - 22) =     -7.48279  eV     2   --> G_5  D_5       
     e( 23 - 24) =     -7.31525  eV     2   --> G_5  D_5       
     e( 25 - 26) =     -5.93978  eV     2   --> G_5  D_5       
     e( 27 - 28) =     -3.21754  eV     2   --> G_5  D_5       
     e( 29 - 30) =     -3.11951  eV     2   --> G_5  D_5       
     e( 31 - 32) =     -2.97780  eV     2   --> G_5  D_5       
     e( 33 - 34) =     -2.94352  eV     2   --> G_5  D_5       
     e( 35 - 36) =     -0.44321  eV     2   --> G_5  D_5       
     e( 37 - 38) =     -0.26081  eV     2   --> G_5  D_5       
     e( 39 - 40) =      0.47383  eV     2   --> G_5  D_5       
     e( 41 - 42) =      1.64601  eV     2   --> G_5  D_5       
     e( 43 - 44) =      1.71932  eV     2   --> G_5  D_5       
     e( 45 - 46) =      3.25010  eV     2   --> G_5  D_5       
     e( 47 - 48) =      4.27754  eV     2   --> G_5  D_5       
     e( 49 - 50) =      4.64308  eV     2   --> G_5  D_5       
     e( 51 - 52) =      4.97964  eV     2   --> G_5  D_5       
     e( 53 - 54) =      5.11418  eV     2   --> G_5  D_5       
     e( 55 - 56) =      6.74347  eV     2   --> G_5  D_5       
     e( 57 - 58) =      6.92112  eV     2   --> G_5  D_5       
     e( 59 - 60) =      7.10177  eV     2   --> G_5  D_5       
     e( 61 - 62) =      7.99739  eV     2   --> G_5  D_5       
     e( 63 - 64) =      8.34256  eV     2   --> G_5  D_5       
     e( 65 - 66) =     10.24081  eV     2   --> G_5  D_5       
     e( 67 - 68) =     10.45526  eV     2   --> G_5  D_5       
     e( 69 - 70) =     10.52761  eV     2   --> G_5  D_5       
     e( 71 - 72) =     10.54964  eV     2   --> G_5  D_5       

 **************************************************************************

 **************************************************************************

                    xk=(   0.00000,   0.04619,   0.00000  )

     Band symmetry, C_2v (mm2)  double point group:

     e(  1 -  2) =    -66.77457  eV     2   --> G_5  D_5       
     e(  3 -  4) =    -42.51719  eV     2   --> G_5  D_5       
     e(  5 -  6) =    -40.08335  eV     2   --> G_5  D_5       
     e(  7 -  8) =    -39.94073  eV     2   --> G_5  D_5       
     e(  9 - 10) =    -20.01094  eV     2   --> G_5  D_5       
     e( 11 - 12) =    -18.71728  eV     2   --> G_5  D_5       
     e( 13 - 14) =    -11.52048  eV     2   --> G_5  D_5       
     e( 15 - 16) =     -8.62880  eV     2   --> G_5  D_5       
     e( 17 - 18) =     -8.52678  eV     2   --> G_5  D_5       
     e( 19 - 20) =     -7.89086  eV     2   --> G_5  D_5       
     e( 21 - 22) =     -7.49028  eV     2   --> G_5  D_5       
     e( 23 - 24) =     -7.29221  eV     2   --> G_5  D_5       
     e( 25 - 26) =     -5.94239  eV     2   --> G_5  D_5       
     e( 27 - 28) =     -3.22298  eV     2   --> G_5  D_5       
     e( 29 - 30) =     -3.11385  eV     2   --> G_5  D_5       
     e( 31 - 32) =     -2.99329  eV     2   --> G_5  D_5       
     e( 33 - 34) =     -2.94966  eV     2   --> G_5  D_5       
     e( 35 - 36) =     -0.43167  eV     2   --> G_5  D_5       
     e( 37 - 38) =     -0.25345  eV     2   --> G_5  D_5       
     e( 39 - 40) =      0.49785  eV     2   --> G_5  D_5       
     e( 41 - 42) =      1.65404  eV     2   --> G_5  D_5       
     e( 43 - 44) =      1.72636  eV     2   --> G_5  D_5       
     e( 45 - 46) =      3.27701  eV     2   --> G_5  D_5       
     e( 47 - 48) =      4.27946  eV     2   --> G_5  D_5       
     e( 49 - 50) =      4.64916  eV     2   --> G_5  D_5       
     e( 51 - 52) =      4.96846  eV     2   --> G_5  D_5       
     e( 53 - 54) =      5.12988  eV     2   --> G_5  D_5       
     e( 55 - 56) =      6.74942  eV     2   --> G_5  D_5       
     e( 57 - 58) =      6.87366  eV     2   --> G_5  D_5       
     e( 59 - 60) =      7.10453  eV     2   --> G_5  D_5       
     e( 61 - 62) =      7.99542  eV     2   --> G_5  D_5       
     e( 63 - 64) =      8.34714  eV     2   --> G_5  D_5       
     e( 65 - 66) =     10.19923  eV     2   --> G_5  D_5       
     e( 67 - 68) =     10.46502  eV     2   --> G_5  D_5       
     e( 69 - 70) =     10.51929  eV     2   --> G_5  D_5       
     e( 71 - 72) =     10.55905  eV     2   --> G_5  D_5       

 **************************************************************************

 **************************************************************************

                    xk=(   0.00000,   0.05196,   0.00000  )

     Band symmetry, C_2v (mm2)  double point group:

     e(  1 -  2) =    -66.77442  eV     2   --> G_5  D_5       
     e(  3 -  4) =    -42.51762  eV     2   --> G_5  D_5       
     e(  5 -  6) =    -40.08352  eV     2   --> G_5  D_5       
     e(  7 -  8) =    -39.94177  eV     2   --> G_5  D_5       
     e(  9 - 10) =    -20.00465  eV     2   --> G_5  D_5       
     e( 11 - 12) =    -18.71472  eV     2   --> G_5  D_5       
     e( 13 - 14) =    -11.51321  eV     2   --> G_5  D_5       
     e( 15 - 16) =     -8.64122  eV     2   --> G_5  D_5       
     e( 17 - 18) =     -8.52215  eV     2   --> G_5  D_5       
     e( 19 - 20) =     -7.92468  eV     2   --> G_5  D_5       
     e( 21 - 22) =     -7.49940  eV     2   --> G_5  D_5       
     e( 23 - 24) =     -7.26888  eV     2   --> G_5  D_5       
     e( 25 - 26) =     -5.94541  eV     2   --> G_5  D_5       
     e( 27 - 28) =     -3.22982  eV     2   --> G_5  D_5       
     e( 29 - 30) =     -3.10707  eV     2   --> G_5  D_5       
     e( 31 - 32) =     -3.00995  eV     2   --> G_5  D_5       
     e( 33 - 34) =     -2.95647  eV     2   --> G_5  D_5       
     e( 35 - 36) =     -0.41889  eV     2   --> G_5  D_5       
     e( 37 - 38) =     -0.24511  eV     2   --> G_5  D_5       
     e( 39 - 40) =      0.52491  eV     2   --> G_5  D_5       
     e( 41 - 42) =      1.66313  eV     2   --> G_5  D_5       
     e( 43 - 44) =      1.73432  eV     2   --> G_5  D_5       
     e( 45 - 46) =      3.30721  eV     2   --> G_5  D_5       
     e( 47 - 48) =      4.28130  eV     2   --> G_5  D_5       
     e( 49 - 50) =      4.65603  eV     2   --> G_5  D_5       
     e( 51 - 52) =      4.95523  eV     2   --> G_5  D_5       
     e( 53 - 54) =      5.14826  eV     2   --> G_5  D_5       
     e( 55 - 56) =      6.75371  eV     2   --> G_5  D_5       
     e( 57 - 58) =      6.82361  eV     2   --> G_5  D_5       
     e( 59 - 60) =      7.10777  eV     2   --> G_5  D_5       
     e( 61 - 62) =      7.99330  eV     2   --> G_5  D_5       
     e( 63 - 64) =      8.35223  eV     2   --> G_5  D_5       
     e( 65 - 66) =     10.15281  eV     2   --> G_5  D_5       
     e( 67 - 68) =     10.47317  eV     2   --> G_5  D_5       
     e( 69 - 70) =     10.49843  eV     2   --> G_5  D_5       
     e( 71 - 72) =     10.54551  eV     2   --> G_5  D_5       

 **************************************************************************

 **************************************************************************

                    xk=(   0.00000,   0.05774,   0.00000  )

     Band symmetry, C_2v (mm2)  double point group:

     e(  1 -  2) =    -66.77425  eV     2   --> G_5  D_5       
     e(  3 -  4) =    -42.51809  eV     2   --> G_5  D_5       
     e(  5 -  6) =    -40.08372  eV     2   --> G_5  D_5       
     e(  7 -  8) =    -39.94293  eV     2   --> G_5  D_5       
     e(  9 - 10) =    -19.99765  eV     2   --> G_5  D_5       
     e( 11 - 12) =    -18.71187  eV     2   --> G_5  D_5       
     e( 13 - 14) =    -11.50512  eV     2   --> G_5  D_5       
     e( 15 - 16) =     -8.65561  eV     2   --> G_5  D_5       
     e( 17 - 18) =     -8.51637  eV     2   --> G_5  D_5       
     e( 19 - 20) =     -7.95928  eV     2   --> G_5  D_5       
     e( 21 - 22) =     -7.50995  eV     2   --> G_5  D_5       
     e( 23 - 24) =     -7.24562  eV     2   --> G_5  D_5       
     e( 25 - 26) =     -5.94886  eV     2   --> G_5  D_5       
     e( 27 - 28) =     -3.23790  eV     2   --> G_5  D_5       
     e( 29 - 30) =     -3.10009  eV     2   --> G_5  D_5       
     e( 31 - 32) =     -3.02694  eV     2   --> G_5  D_5       
     e( 33 - 34) =     -2.96387  eV     2   --> G_5  D_5       
     e( 35 - 36) =     -0.40496  eV     2   --> G_5  D_5       
     e( 37 - 38) =     -0.23581  eV     2   --> G_5  D_5       
     e( 39 - 40) =      0.55498  eV     2   --> G_5  D_5       
     e( 41 - 42) =      1.67328  eV     2   --> G_5  D_5       
     e( 43 - 44) =      1.74322  eV     2   --> G_5  D_5       
     e( 45 - 46) =      3.34050  eV     2   --> G_5  D_5       
     e( 47 - 48) =      4.28297  eV     2   --> G_5  D_5       
     e( 49 - 50) =      4.66365  eV     2   --> G_5  D_5       
     e( 51 - 52) =      4.94085  eV     2   --> G_5  D_5       
     e( 53 - 54) =      5.16927  eV     2   --> G_5  D_5       
     e( 55 - 56) =      6.74457  eV     2   --> G_5  D_5       
     e( 57 - 58) =      6.78358  eV     2   --> G_5  D_5       
     e( 59 - 60) =      7.11109  eV     2   --> G_5  D_5       
     e( 61 - 62) =      7.99107  eV     2   --> G_5  D_5       
     e( 63 - 64) =      8.35774  eV     2   --> G_5  D_5       
     e( 65 - 66) =     10.10338  eV     2   --> G_5  D_5       
     e( 67 - 68) =     10.46339  eV     2   --> G_5  D_5       
     e( 69 - 70) =     10.49279  eV     2   --> G_5  D_5       
     e( 71 - 72) =     10.53063  eV     2   --> G_5  D_5       

 **************************************************************************

 **************************************************************************

                    xk=(   0.00000,   0.06351,   0.00000  )

     Band symmetry, C_2v (mm2)  double point group:

     e(  1 -  2) =    -66.77406  eV     2   --> G_5  D_5       
     e(  3 -  4) =    -42.51861  eV     2   --> G_5  D_5       
     e(  5 -  6) =    -40.08394  eV     2   --> G_5  D_5       
     e(  7 -  8) =    -39.94420  eV     2   --> G_5  D_5       
     e(  9 - 10) =    -19.98992  eV     2   --> G_5  D_5       
     e( 11 - 12) =    -18.70872  eV     2   --> G_5  D_5       
     e( 13 - 14) =    -11.49622  eV     2   --> G_5  D_5       
     e( 15 - 16) =     -8.67184  eV     2   --> G_5  D_5       
     e( 17 - 18) =     -8.50953  eV     2   --> G_5  D_5       
     e( 19 - 20) =     -7.99452  eV     2   --> G_5  D_5       
     e( 21 - 22) =     -7.52181  eV     2   --> G_5  D_5       
     e( 23 - 24) =     -7.22275  eV     2   --> G_5  D_5       
     e( 25 - 26) =     -5.95277  eV     2   --> G_5  D_5       
     e( 27 - 28) =     -3.24707  eV     2   --> G_5  D_5       
     e( 29 - 30) =     -3.09541  eV     2   --> G_5  D_5       
     e( 31 - 32) =     -3.04187  eV     2   --> G_5  D_5       
     e( 33 - 34) =     -2.97172  eV     2   --> G_5  D_5       
     e( 35 - 36) =     -0.38994  eV     2   --> G_5  D_5       
     e( 37 - 38) =     -0.22554  eV     2   --> G_5  D_5       
     e( 39 - 40) =      0.58800  eV     2   --> G_5  D_5       
     e( 41 - 42) =      1.68452  eV     2   --> G_5  D_5       
     e( 43 - 44) =      1.75303  eV     2   --> G_5  D_5       
     e( 45 - 46) =      3.37668  eV     2   --> G_5  D_5       
     e( 47 - 48) =      4.28427  eV     2   --> G_5  D_5       
     e( 49 - 50) =      4.67201  eV     2   --> G_5  D_5       
     e( 51 - 52) =      4.92506  eV     2   --> G_5  D_5       
     e( 53 - 54) =      5.19297  eV     2   --> G_5  D_5       
     e( 55 - 56) =      6.69672  eV     2   --> G_5  D_5       
     e( 57 - 58) =      6.77834  eV     2   --> G_5  D_5       
     e( 59 - 60) =      7.11442  eV     2   --> G_5  D_5       
     e( 61 - 62) =      7.98877  eV     2   --> G_5  D_5       
     e( 63 - 64) =      8.36357  eV     2   --> G_5  D_5       
     e( 65 - 66) =     10.05033  eV     2   --> G_5  D_5       
     e( 67 - 68) =     10.43559  eV     2   --> G_5  D_5       
     e( 69 - 70) =     10.49851  eV     2   --> G_5  D_5       
     e( 71 - 72) =     10.51856  eV     2   --> G_5  D_5       

 **************************************************************************

 **************************************************************************

                    xk=(   0.00000,   0.06928,   0.00000  )

     Band symmetry, C_2v (mm2)  double point group:

     e(  1 -  2) =    -66.77385  eV     2   --> G_5  D_5       
     e(  3 -  4) =    -42.51917  eV     2   --> G_5  D_5       
     e(  5 -  6) =    -40.08418  eV     2   --> G_5  D_5       
     e(  7 -  8) =    -39.94558  eV     2   --> G_5  D_5       
     e(  9 - 10) =    -19.98147  eV     2   --> G_5  D_5       
     e( 11 - 12) =    -18.70529  eV     2   --> G_5  D_5       
     e( 13 - 14) =    -11.48653  eV     2   --> G_5  D_5       
     e( 15 - 16) =     -8.68975  eV     2   --> G_5  D_5       
     e( 17 - 18) =     -8.50170  eV     2   --> G_5  D_5       
     e( 19 - 20) =     -8.03028  eV     2   --> G_5  D_5       
     e( 21 - 22) =     -7.53487  eV     2   --> G_5  D_5       
     e( 23 - 24) =     -7.20045  eV     2   --> G_5  D_5       
     e( 25 - 26) =     -5.95716  eV     2   --> G_5  D_5       
     e( 27 - 28) =     -3.25709  eV     2   --> G_5  D_5       
     e( 29 - 30) =     -3.09893  eV     2   --> G_5  D_5       
     e( 31 - 32) =     -3.04906  eV     2   --> G_5  D_5       
     e( 33 - 34) =     -2.97970  eV     2   --> G_5  D_5       
     e( 35 - 36) =     -0.37391  eV     2   --> G_5  D_5       
     e( 37 - 38) =     -0.21432  eV     2   --> G_5  D_5       
     e( 39 - 40) =      0.62388  eV     2   --> G_5  D_5       
     e( 41 - 42) =      1.69686  eV     2   --> G_5  D_5       
     e( 43 - 44) =      1.76375  eV     2   --> G_5  D_5       
     e( 45 - 46) =      3.41562  eV     2   --> G_5  D_5       
     e( 47 - 48) =      4.28512  eV     2   --> G_5  D_5       
     e( 49 - 50) =      4.68107  eV     2   --> G_5  D_5       
     e( 51 - 52) =      4.90900  eV     2   --> G_5  D_5       
     e( 53 - 54) =      5.21891  eV     2   --> G_5  D_5       
     e( 55 - 56) =      6.63640  eV     2   --> G_5  D_5       
     e( 57 - 58) =      6.78261  eV     2   --> G_5  D_5       
     e( 59 - 60) =      7.11819  eV     2   --> G_5  D_5       
     e( 61 - 62) =      7.98651  eV     2   --> G_5  D_5       
     e( 63 - 64) =      8.36964  eV     2   --> G_5  D_5       
     e( 65 - 66) =      9.99542  eV     2   --> G_5  D_5       
     e( 67 - 68) =     10.40395  eV     2   --> G_5  D_5       
     e( 69 - 70) =     10.48953  eV     2   --> G_5  D_5       
     e( 71 - 72) =     10.52342  eV     2   --> G_5  D_5       

 **************************************************************************

 **************************************************************************

                    xk=(   0.00000,   0.07506,   0.00000  )

     Band symmetry, C_2v (mm2)  double point group:

     e(  1 -  2) =    -66.77362  eV     2   --> G_5  D_5       
     e(  3 -  4) =    -42.51979  eV     2   --> G_5  D_5       
     e(  5 -  6) =    -40.08444  eV     2   --> G_5  D_5       
     e(  7 -  8) =    -39.94707  eV     2   --> G_5  D_5       
     e(  9 - 10) =    -19.97231  eV     2   --> G_5  D_5       
     e( 11 - 12) =    -18.70156  eV     2   --> G_5  D_5       
     e( 13 - 14) =    -11.47606  eV     2   --> G_5  D_5       
     e( 15 - 16) =     -8.70925  eV     2   --> G_5  D_5       
     e( 17 - 18) =     -8.49295  eV     2   --> G_5  D_5       
     e( 19 - 20) =     -8.06648  eV     2   --> G_5  D_5       
     e( 21 - 22) =     -7.54904  eV     2   --> G_5  D_5       
     e( 23 - 24) =     -7.17890  eV     2   --> G_5  D_5       
     e( 25 - 26) =     -5.96206  eV     2   --> G_5  D_5       
     e( 27 - 28) =     -3.26779  eV     2   --> G_5  D_5       
     e( 29 - 30) =     -3.11366  eV     2   --> G_5  D_5       
     e( 31 - 32) =     -3.04616  eV     2   --> G_5  D_5       
     e( 33 - 34) =     -2.98709  eV     2   --> G_5  D_5       
     e( 35 - 36) =     -0.35695  eV     2   --> G_5  D_5       
     e( 37 - 38) =     -0.20214  eV     2   --> G_5  D_5       
     e( 39 - 40) =      0.66252  eV     2   --> G_5  D_5       
     e( 41 - 42) =      1.71027  eV     2   --> G_5  D_5       
     e( 43 - 44) =      1.77539  eV     2   --> G_5  D_5       
     e( 45 - 46) =      3.45714  eV     2   --> G_5  D_5       
     e( 47 - 48) =      4.28529  eV     2   --> G_5  D_5       
     e( 49 - 50) =      4.69081  eV     2   --> G_5  D_5       
     e( 51 - 52) =      4.89296  eV     2   --> G_5  D_5       
     e( 53 - 54) =      5.24607  eV     2   --> G_5  D_5       
     e( 55 - 56) =      6.57242  eV     2   --> G_5  D_5       
     e( 57 - 58) =      6.78761  eV     2   --> G_5  D_5       
     e( 59 - 60) =      7.12221  eV     2   --> G_5  D_5       
     e( 61 - 62) =      7.98432  eV     2   --> G_5  D_5       
     e( 63 - 64) =      8.37585  eV     2   --> G_5  D_5       
     e( 65 - 66) =      9.93866  eV     2   --> G_5  D_5       
     e( 67 - 68) =     10.36957  eV     2   --> G_5  D_5       
     e( 69 - 70) =     10.47269  eV     2   --> G_5  D_5       
     e( 71 - 72) =     10.53671  eV     2   --> G_5  D_5       

 **************************************************************************

 **************************************************************************

                    xk=(   0.00000,   0.08083,   0.00000  )

     Band symmetry, C_2v (mm2)  double point group:

     e(  1 -  2) =    -66.77338  eV     2   --> G_5  D_5       
     e(  3 -  4) =    -42.52045  eV     2   --> G_5  D_5       
     e(  5 -  6) =    -40.08473  eV     2   --> G_5  D_5       
     e(  7 -  8) =    -39.94867  eV     2   --> G_5  D_5       
     e(  9 - 10) =    -19.96243  eV     2   --> G_5  D_5       
     e( 11 - 12) =    -18.69754  eV     2   --> G_5  D_5       
     e( 13 - 14) =    -11.46483  eV     2   --> G_5  D_5       
     e( 15 - 16) =     -8.73024  eV     2   --> G_5  D_5       
     e( 17 - 18) =     -8.48336  eV     2   --> G_5  D_5       
     e( 19 - 20) =     -8.10304  eV     2   --> G_5  D_5       
     e( 21 - 22) =     -7.56424  eV     2   --> G_5  D_5       
     e( 23 - 24) =     -7.15820  eV     2   --> G_5  D_5       
     e( 25 - 26) =     -5.96750  eV     2   --> G_5  D_5       
     e( 27 - 28) =     -3.27895  eV     2   --> G_5  D_5       
     e( 29 - 30) =     -3.13459  eV     2   --> G_5  D_5       
     e( 31 - 32) =     -3.03994  eV     2   --> G_5  D_5       
     e( 33 - 34) =     -2.99198  eV     2   --> G_5  D_5       
     e( 35 - 36) =     -0.33911  eV     2   --> G_5  D_5       
     e( 37 - 38) =     -0.18901  eV     2   --> G_5  D_5       
     e( 39 - 40) =      0.70382  eV     2   --> G_5  D_5       
     e( 41 - 42) =      1.72482  eV     2   --> G_5  D_5       
     e( 43 - 44) =      1.78794  eV     2   --> G_5  D_5       
     e( 45 - 46) =      3.50116  eV     2   --> G_5  D_5       
     e( 47 - 48) =      4.28460  eV     2   --> G_5  D_5       
     e( 49 - 50) =      4.70123  eV     2   --> G_5  D_5       
     e( 51 - 52) =      4.87702  eV     2   --> G_5  D_5       
     e( 53 - 54) =      5.27701  eV     2   --> G_5  D_5       
     e( 55 - 56) =      6.50681  eV     2   --> G_5  D_5       
     e( 57 - 58) =      6.79238  eV     2   --> G_5  D_5       
     e( 59 - 60) =      7.12719  eV     2   --> G_5  D_5       
     e( 61 - 62) =      7.98226  eV     2   --> G_5  D_5       
     e( 63 - 64) =      8.38216  eV     2   --> G_5  D_5       
     e( 65 - 66) =      9.88103  eV     2   --> G_5  D_5       
     e( 67 - 68) =     10.33289  eV     2   --> G_5  D_5       
     e( 69 - 70) =     10.45420  eV     2   --> G_5  D_5       
     e( 71 - 72) =     10.55283  eV     2   --> G_5  D_5       

 **************************************************************************

 **************************************************************************

                    xk=(   0.00000,   0.08660,   0.00000  )

     Band symmetry, C_2v (mm2)  double point group:

     e(  1 -  2) =    -66.77312  eV     2   --> G_5  D_5       
     e(  3 -  4) =    -42.52116  eV     2   --> G_5  D_5       
     e(  5 -  6) =    -40.08505  eV     2   --> G_5  D_5       
     e(  7 -  8) =    -39.95037  eV     2   --> G_5  D_5       
     e(  9 - 10) =    -19.95186  eV     2   --> G_5  D_5       
     e( 11 - 12) =    -18.69324  eV     2   --> G_5  D_5       
     e( 13 - 14) =    -11.45285  eV     2   --> G_5  D_5       
     e( 15 - 16) =     -8.75263  eV     2   --> G_5  D_5       
     e( 17 - 18) =     -8.47297  eV     2   --> G_5  D_5       
     e( 19 - 20) =     -8.13990  eV     2   --> G_5  D_5       
     e( 21 - 22) =     -7.58045  eV     2   --> G_5  D_5       
     e( 23 - 24) =     -7.13850  eV     2   --> G_5  D_5       
     e( 25 - 26) =     -5.97351  eV     2   --> G_5  D_5       
     e( 27 - 28) =     -3.29049  eV     2   --> G_5  D_5       
     e( 29 - 30) =     -3.15821  eV     2   --> G_5  D_5       
     e( 31 - 32) =     -3.03762  eV     2   --> G_5  D_5       
     e( 33 - 34) =     -2.99062  eV     2   --> G_5  D_5       
     e( 35 - 36) =     -0.32046  eV     2   --> G_5  D_5       
     e( 37 - 38) =     -0.17494  eV     2   --> G_5  D_5       
     e( 39 - 40) =      0.74765  eV     2   --> G_5  D_5       
     e( 41 - 42) =      1.74048  eV     2   --> G_5  D_5       
     e( 43 - 44) =      1.80139  eV     2   --> G_5  D_5       
     e( 45 - 46) =      3.54726  eV     2   --> G_5  D_5       
     e( 47 - 48) =      4.28282  eV     2   --> G_5  D_5       
     e( 49 - 50) =      4.71226  eV     2   --> G_5  D_5       
     e( 51 - 52) =      4.86184  eV     2   --> G_5  D_5       
     e( 53 - 54) =      5.30947  eV     2   --> G_5  D_5       
     e( 55 - 56) =      6.43955  eV     2   --> G_5  D_5       
     e( 57 - 58) =      6.79627  eV     2   --> G_5  D_5       
     e( 59 - 60) =      7.13189  eV     2   --> G_5  D_5       
     e( 61 - 62) =      7.98040  eV     2   --> G_5  D_5       
     e( 63 - 64) =      8.38830  eV     2   --> G_5  D_5       
     e( 65 - 66) =      9.82283  eV     2   --> G_5  D_5       
     e( 67 - 68) =     10.29391  eV     2   --> G_5  D_5       
     e( 69 - 70) =     10.43475  eV     2   --> G_5  D_5       
     e( 71 - 72) =     10.57005  eV     2   --> G_5  D_5       

 **************************************************************************

 **************************************************************************

                    xk=(   0.00000,   0.09238,   0.00000  )

     Band symmetry, C_2v (mm2)  double point group:

     e(  1 -  2) =    -66.77285  eV     2   --> G_5  D_5       
     e(  3 -  4) =    -42.52191  eV     2   --> G_5  D_5       
     e(  5 -  6) =    -40.08539  eV     2   --> G_5  D_5       
     e(  7 -  8) =    -39.95216  eV     2   --> G_5  D_5       
     e(  9 - 10) =    -19.94058  eV     2   --> G_5  D_5       
     e( 11 - 12) =    -18.68865  eV     2   --> G_5  D_5       
     e( 13 - 14) =    -11.44015  eV     2   --> G_5  D_5       
     e( 15 - 16) =     -8.77632  eV     2   --> G_5  D_5       
     e( 17 - 18) =     -8.46184  eV     2   --> G_5  D_5       
     e( 19 - 20) =     -8.17697  eV     2   --> G_5  D_5       
     e( 21 - 22) =     -7.59757  eV     2   --> G_5  D_5       
     e( 23 - 24) =     -7.11985  eV     2   --> G_5  D_5       
     e( 25 - 26) =     -5.98012  eV     2   --> G_5  D_5       
     e( 27 - 28) =     -3.30220  eV     2   --> G_5  D_5       
     e( 29 - 30) =     -3.18319  eV     2   --> G_5  D_5       
     e( 31 - 32) =     -3.04221  eV     2   --> G_5  D_5       
     e( 33 - 34) =     -2.98110  eV     2   --> G_5  D_5       
     e( 35 - 36) =     -0.30103  eV     2   --> G_5  D_5       
     e( 37 - 38) =     -0.15993  eV     2   --> G_5  D_5       
     e( 39 - 40) =      0.79388  eV     2   --> G_5  D_5       
     e( 41 - 42) =      1.75732  eV     2   --> G_5  D_5       
     e( 43 - 44) =      1.81575  eV     2   --> G_5  D_5       
     e( 45 - 46) =      3.59541  eV     2   --> G_5  D_5       
     e( 47 - 48) =      4.27981  eV     2   --> G_5  D_5       
     e( 49 - 50) =      4.72388  eV     2   --> G_5  D_5       
     e( 51 - 52) =      4.84788  eV     2   --> G_5  D_5       
     e( 53 - 54) =      5.34494  eV     2   --> G_5  D_5       
     e( 55 - 56) =      6.37227  eV     2   --> G_5  D_5       
     e( 57 - 58) =      6.79924  eV     2   --> G_5  D_5       
     e( 59 - 60) =      7.13763  eV     2   --> G_5  D_5       
     e( 61 - 62) =      7.97880  eV     2   --> G_5  D_5       
     e( 63 - 64) =      8.39423  eV     2   --> G_5  D_5       
     e( 65 - 66) =      9.76496  eV     2   --> G_5  D_5       
     e( 67 - 68) =     10.25306  eV     2   --> G_5  D_5       
     e( 69 - 70) =     10.41497  eV     2   --> G_5  D_5       
     e( 71 - 72) =     10.58887  eV     2   --> G_5  D_5       

 **************************************************************************

 **************************************************************************

                    xk=(   0.00000,   0.09815,   0.00000  )

     Band symmetry, C_2v (mm2)  double point group:

     e(  1 -  2) =    -66.77256  eV     2   --> G_5  D_5       
     e(  3 -  4) =    -42.52271  eV     2   --> G_5  D_5       
     e(  5 -  6) =    -40.08576  eV     2   --> G_5  D_5       
     e(  7 -  8) =    -39.95405  eV     2   --> G_5  D_5       
     e(  9 - 10) =    -19.92861  eV     2   --> G_5  D_5       
     e( 11 - 12) =    -18.68379  eV     2   --> G_5  D_5       
     e( 13 - 14) =    -11.42674  eV     2   --> G_5  D_5       
     e( 15 - 16) =     -8.80123  eV     2   --> G_5  D_5       
     e( 17 - 18) =     -8.45004  eV     2   --> G_5  D_5       
     e( 19 - 20) =     -8.21420  eV     2   --> G_5  D_5       
     e( 21 - 22) =     -7.61556  eV     2   --> G_5  D_5       
     e( 23 - 24) =     -7.10236  eV     2   --> G_5  D_5       
     e( 25 - 26) =     -5.98737  eV     2   --> G_5  D_5       
     e( 27 - 28) =     -3.31407  eV     2   --> G_5  D_5       
     e( 29 - 30) =     -3.20890  eV     2   --> G_5  D_5       
     e( 31 - 32) =     -3.05136  eV     2   --> G_5  D_5       
     e( 33 - 34) =     -2.96621  eV     2   --> G_5  D_5       
     e( 35 - 36) =     -0.28088  eV     2   --> G_5  D_5       
     e( 37 - 38) =     -0.14397  eV     2   --> G_5  D_5       
     e( 39 - 40) =      0.84236  eV     2   --> G_5  D_5       
     e( 41 - 42) =      1.77533  eV     2   --> G_5  D_5       
     e( 43 - 44) =      1.83100  eV     2   --> G_5  D_5       
     e( 45 - 46) =      3.64531  eV     2   --> G_5  D_5       
     e( 47 - 48) =      4.27525  eV     2   --> G_5  D_5       
     e( 49 - 50) =      4.73604  eV     2   --> G_5  D_5       
     e( 51 - 52) =      4.83512  eV     2   --> G_5  D_5       
     e( 53 - 54) =      5.38244  eV     2   --> G_5  D_5       
     e( 55 - 56) =      6.30449  eV     2   --> G_5  D_5       
     e( 57 - 58) =      6.80088  eV     2   --> G_5  D_5       
     e( 59 - 60) =      7.14428  eV     2   --> G_5  D_5       
     e( 61 - 62) =      7.97750  eV     2   --> G_5  D_5       
     e( 63 - 64) =      8.39970  eV     2   --> G_5  D_5       
     e( 65 - 66) =      9.70739  eV     2   --> G_5  D_5       
     e( 67 - 68) =     10.21001  eV     2   --> G_5  D_5       
     e( 69 - 70) =     10.39450  eV     2   --> G_5  D_5       
     e( 71 - 72) =     10.60856  eV     2   --> G_5  D_5       

 **************************************************************************

 **************************************************************************

                    xk=(   0.00000,   0.10392,   0.00000  )

     Band symmetry, C_2v (mm2)  double point group:

     e(  1 -  2) =    -66.77225  eV     2   --> G_5  D_5       
     e(  3 -  4) =    -42.52356  eV     2   --> G_5  D_5       
     e(  5 -  6) =    -40.08616  eV     2   --> G_5  D_5       
     e(  7 -  8) =    -39.95604  eV     2   --> G_5  D_5       
     e(  9 - 10) =    -19.91596  eV     2   --> G_5  D_5       
     e( 11 - 12) =    -18.67864  eV     2   --> G_5  D_5       
     e( 13 - 14) =    -11.41265  eV     2   --> G_5  D_5       
     e( 15 - 16) =     -8.82729  eV     2   --> G_5  D_5       
     e( 17 - 18) =     -8.43769  eV     2   --> G_5  D_5       
     e( 19 - 20) =     -8.25146  eV     2   --> G_5  D_5       
     e( 21 - 22) =     -7.63437  eV     2   --> G_5  D_5       
     e( 23 - 24) =     -7.08610  eV     2   --> G_5  D_5       
     e( 25 - 26) =     -5.99529  eV     2   --> G_5  D_5       
     e( 27 - 28) =     -3.32611  eV     2   --> G_5  D_5       
     e( 29 - 30) =     -3.23484  eV     2   --> G_5  D_5       
     e( 31 - 32) =     -3.06280  eV     2   --> G_5  D_5       
     e( 33 - 34) =     -2.94844  eV     2   --> G_5  D_5       
     e( 35 - 36) =     -0.26003  eV     2   --> G_5  D_5       
     e( 37 - 38) =     -0.12708  eV     2   --> G_5  D_5       
     e( 39 - 40) =      0.89291  eV     2   --> G_5  D_5       
     e( 41 - 42) =      1.79455  eV     2   --> G_5  D_5       
     e( 43 - 44) =      1.84714  eV     2   --> G_5  D_5       
     e( 45 - 46) =      3.69663  eV     2   --> G_5  D_5       
     e( 47 - 48) =      4.26892  eV     2   --> G_5  D_5       
     e( 49 - 50) =      4.74867  eV     2   --> G_5  D_5       
     e( 51 - 52) =      4.82397  eV     2   --> G_5  D_5       
     e( 53 - 54) =      5.42202  eV     2   --> G_5  D_5       
     e( 55 - 56) =      6.23681  eV     2   --> G_5  D_5       
     e( 57 - 58) =      6.80101  eV     2   --> G_5  D_5       
     e( 59 - 60) =      7.15185  eV     2   --> G_5  D_5       
     e( 61 - 62) =      7.97657  eV     2   --> G_5  D_5       
     e( 63 - 64) =      8.40441  eV     2   --> G_5  D_5       
     e( 65 - 66) =      9.65081  eV     2   --> G_5  D_5       
     e( 67 - 68) =     10.16530  eV     2   --> G_5  D_5       
     e( 69 - 70) =     10.37370  eV     2   --> G_5  D_5       
     e( 71 - 72) =     10.62929  eV     2   --> G_5  D_5       

 **************************************************************************

 **************************************************************************

                    xk=(   0.00000,   0.10970,   0.00000  )

     Band symmetry, C_2v (mm2)  double point group:

     e(  1 -  2) =    -66.77193  eV     2   --> G_5  D_5       
     e(  3 -  4) =    -42.52445  eV     2   --> G_5  D_5       
     e(  5 -  6) =    -40.08659  eV     2   --> G_5  D_5       
     e(  7 -  8) =    -39.95810  eV     2   --> G_5  D_5       
     e(  9 - 10) =    -19.90263  eV     2   --> G_5  D_5       
     e( 11 - 12) =    -18.67322  eV     2   --> G_5  D_5       
     e( 13 - 14) =    -11.39791  eV     2   --> G_5  D_5       
     e( 15 - 16) =     -8.85441  eV     2   --> G_5  D_5       
     e( 17 - 18) =     -8.42504  eV     2   --> G_5  D_5       
     e( 19 - 20) =     -8.28848  eV     2   --> G_5  D_5       
     e( 21 - 22) =     -7.65397  eV     2   --> G_5  D_5       
     e( 23 - 24) =     -7.07112  eV     2   --> G_5  D_5       
     e( 25 - 26) =     -6.00392  eV     2   --> G_5  D_5       
     e( 27 - 28) =     -3.33842  eV     2   --> G_5  D_5       
     e( 29 - 30) =     -3.26049  eV     2   --> G_5  D_5       
     e( 31 - 32) =     -3.07554  eV     2   --> G_5  D_5       
     e( 33 - 34) =     -2.92896  eV     2   --> G_5  D_5       
     e( 35 - 36) =     -0.23852  eV     2   --> G_5  D_5       
     e( 37 - 38) =     -0.10928  eV     2   --> G_5  D_5       
     e( 39 - 40) =      0.94535  eV     2   --> G_5  D_5       
     e( 41 - 42) =      1.81504  eV     2   --> G_5  D_5       
     e( 43 - 44) =      1.86415  eV     2   --> G_5  D_5       
     e( 45 - 46) =      3.74874  eV     2   --> G_5  D_5       
     e( 47 - 48) =      4.26079  eV     2   --> G_5  D_5       
     e( 49 - 50) =      4.76169  eV     2   --> G_5  D_5       
     e( 51 - 52) =      4.81492  eV     2   --> G_5  D_5       
     e( 53 - 54) =      5.46375  eV     2   --> G_5  D_5       
     e( 55 - 56) =      6.17033  eV     2   --> G_5  D_5       
     e( 57 - 58) =      6.79962  eV     2   --> G_5  D_5       
     e( 59 - 60) =      7.15945  eV     2   --> G_5  D_5       
     e( 61 - 62) =      7.97604  eV     2   --> G_5  D_5       
     e( 63 - 64) =      8.40813  eV     2   --> G_5  D_5       
     e( 65 - 66) =      9.59592  eV     2   --> G_5  D_5       
     e( 67 - 68) =     10.11889  eV     2   --> G_5  D_5       
     e( 69 - 70) =     10.35282  eV     2   --> G_5  D_5       
     e( 71 - 72) =     10.65089  eV     2   --> G_5  D_5       

 **************************************************************************

 **************************************************************************

                    xk=(   0.00000,   0.11547,   0.00000  )

     Band symmetry, C_2v (mm2)  double point group:

     e(  1 -  2) =    -66.77159  eV     2   --> G_5  D_5       
     e(  3 -  4) =    -42.52538  eV     2   --> G_5  D_5       
     e(  5 -  6) =    -40.08706  eV     2   --> G_5  D_5       
     e(  7 -  8) =    -39.96025  eV     2   --> G_5  D_5       
     e(  9 - 10) =    -19.88864  eV     2   --> G_5  D_5       
     e( 11 - 12) =    -18.66752  eV     2   --> G_5  D_5       
     e( 13 - 14) =    -11.38255  eV     2   --> G_5  D_5       
     e( 15 - 16) =     -8.88252  eV     2   --> G_5  D_5       
     e( 17 - 18) =     -8.41289  eV     2   --> G_5  D_5       
     e( 19 - 20) =     -8.32448  eV     2   --> G_5  D_5       
     e( 21 - 22) =     -7.67429  eV     2   --> G_5  D_5       
     e( 23 - 24) =     -7.05750  eV     2   --> G_5  D_5       
     e( 25 - 26) =     -6.01330  eV     2   --> G_5  D_5       
     e( 27 - 28) =     -3.35141  eV     2   --> G_5  D_5       
     e( 29 - 30) =     -3.28514  eV     2   --> G_5  D_5       
     e( 31 - 32) =     -3.08916  eV     2   --> G_5  D_5       
     e( 33 - 34) =     -2.90819  eV     2   --> G_5  D_5       
     e( 35 - 36) =     -0.21637  eV     2   --> G_5  D_5       
     e( 37 - 38) =     -0.09054  eV     2   --> G_5  D_5       
     e( 39 - 40) =      0.99949  eV     2   --> G_5  D_5       
     e( 41 - 42) =      1.83683  eV     2   --> G_5  D_5       
     e( 43 - 44) =      1.88205  eV     2   --> G_5  D_5       
     e( 45 - 46) =      3.80176  eV     2   --> G_5  D_5       
     e( 47 - 48) =      4.25062  eV     2   --> G_5  D_5       
     e( 49 - 50) =      4.77501  eV     2   --> G_5  D_5       
     e( 51 - 52) =      4.80797  eV     2   --> G_5  D_5       
     e( 53 - 54) =      5.50727  eV     2   --> G_5  D_5       
     e( 55 - 56) =      6.10482  eV     2   --> G_5  D_5       
     e( 57 - 58) =      6.79645  eV     2   --> G_5  D_5       
     e( 59 - 60) =      7.16805  eV     2   --> G_5  D_5       
     e( 61 - 62) =      7.97593  eV     2   --> G_5  D_5       
     e( 63 - 64) =      8.41056  eV     2   --> G_5  D_5       
     e( 65 - 66) =      9.54290  eV     2   --> G_5  D_5       
     e( 67 - 68) =     10.07051  eV     2   --> G_5  D_5       
     e( 69 - 70) =     10.33139  eV     2   --> G_5  D_5       
     e( 71 - 72) =     10.67331  eV     2   --> G_5  D_5       

 **************************************************************************

 **************************************************************************

                    xk=(   0.00000,   0.12124,   0.00000  )

     Band symmetry, C_2v (mm2)  double point group:

     e(  1 -  2) =    -66.77124  eV     2   --> G_5  D_5       
     e(  3 -  4) =    -42.52636  eV     2   --> G_5  D_5       
     e(  5 -  6) =    -40.08756  eV     2   --> G_5  D_5       
     e(  7 -  8) =    -39.96248  eV     2   --> G_5  D_5       
     e(  9 - 10) =    -19.87398  eV     2   --> G_5  D_5       
     e( 11 - 12) =    -18.66156  eV     2   --> G_5  D_5       
     e( 13 - 14) =    -11.36660  eV     2   --> G_5  D_5       
     e( 15 - 16) =     -8.91154  eV     2   --> G_5  D_5       
     e( 17 - 18) =     -8.40518  eV     2   --> G_5  D_5       
     e( 19 - 20) =     -8.35551  eV     2   --> G_5  D_5       
     e( 21 - 22) =     -7.69530  eV     2   --> G_5  D_5       
     e( 23 - 24) =     -7.04528  eV     2   --> G_5  D_5       
     e( 25 - 26) =     -6.02346  eV     2   --> G_5  D_5       
     e( 27 - 28) =     -3.36589  eV     2   --> G_5  D_5       
     e( 29 - 30) =     -3.30770  eV     2   --> G_5  D_5       
     e( 31 - 32) =     -3.10345  eV     2   --> G_5  D_5       
     e( 33 - 34) =     -2.88645  eV     2   --> G_5  D_5       
     e( 35 - 36) =     -0.19360  eV     2   --> G_5  D_5       
     e( 37 - 38) =     -0.07090  eV     2   --> G_5  D_5       
     e( 39 - 40) =      1.05510  eV     2   --> G_5  D_5       
     e( 41 - 42) =      1.85998  eV     2   --> G_5  D_5       
     e( 43 - 44) =      1.90080  eV     2   --> G_5  D_5       
     e( 45 - 46) =      3.85493  eV     2   --> G_5  D_5       
     e( 47 - 48) =      4.23828  eV     2   --> G_5  D_5       
     e( 49 - 50) =      4.78819  eV     2   --> G_5  D_5       
     e( 51 - 52) =      4.80357  eV     2   --> G_5  D_5       
     e( 53 - 54) =      5.55234  eV     2   --> G_5  D_5       
     e( 55 - 56) =      6.04091  eV     2   --> G_5  D_5       
     e( 57 - 58) =      6.79129  eV     2   --> G_5  D_5       
     e( 59 - 60) =      7.17690  eV     2   --> G_5  D_5       
     e( 61 - 62) =      7.97624  eV     2   --> G_5  D_5       
     e( 63 - 64) =      8.41124  eV     2   --> G_5  D_5       
     e( 65 - 66) =      9.49242  eV     2   --> G_5  D_5       
     e( 67 - 68) =     10.02051  eV     2   --> G_5  D_5       
     e( 69 - 70) =     10.30971  eV     2   --> G_5  D_5       
     e( 71 - 72) =     10.69635  eV     2   --> G_5  D_5       

 **************************************************************************

 **************************************************************************

                    xk=(   0.00000,   0.12702,   0.00000  )

     Band symmetry, C_2v (mm2)  double point group:

     e(  1 -  2) =    -66.77087  eV     2   --> G_5  D_5       
     e(  3 -  4) =    -42.52738  eV     2   --> G_5  D_5       
     e(  5 -  6) =    -40.08810  eV     2   --> G_5  D_5       
     e(  7 -  8) =    -39.96478  eV     2   --> G_5  D_5       
     e(  9 - 10) =    -19.85867  eV     2   --> G_5  D_5       
     e( 11 - 12) =    -18.65534  eV     2   --> G_5  D_5       
     e( 13 - 14) =    -11.35009  eV     2   --> G_5  D_5       
     e( 15 - 16) =     -8.94138  eV     2   --> G_5  D_5       
     e( 17 - 18) =     -8.41856  eV     2   --> G_5  D_5       
     e( 19 - 20) =     -8.36494  eV     2   --> G_5  D_5       
     e( 21 - 22) =     -7.71694  eV     2   --> G_5  D_5       
     e( 23 - 24) =     -7.03450  eV     2   --> G_5  D_5       
     e( 25 - 26) =     -6.03442  eV     2   --> G_5  D_5       
     e( 27 - 28) =     -3.38290  eV     2   --> G_5  D_5       
     e( 29 - 30) =     -3.32679  eV     2   --> G_5  D_5       
     e( 31 - 32) =     -3.11831  eV     2   --> G_5  D_5       
     e( 33 - 34) =     -2.86387  eV     2   --> G_5  D_5       
     e( 35 - 36) =     -0.17021  eV     2   --> G_5  D_5       
     e( 37 - 38) =     -0.05034  eV     2   --> G_5  D_5       
     e( 39 - 40) =      1.11194  eV     2   --> G_5  D_5       
     e( 41 - 42) =      1.88460  eV     2   --> G_5  D_5       
     e( 43 - 44) =      1.92043  eV     2   --> G_5  D_5       
     e( 45 - 46) =      3.90776  eV     2   --> G_5  D_5       
     e( 47 - 48) =      4.22412  eV     2   --> G_5  D_5       
     e( 49 - 50) =      4.79725  eV     2   --> G_5  D_5       
     e( 51 - 52) =      4.80600  eV     2   --> G_5  D_5       
     e( 53 - 54) =      5.59939  eV     2   --> G_5  D_5       
     e( 55 - 56) =      5.97975  eV     2   --> G_5  D_5       
     e( 57 - 58) =      6.78443  eV     2   --> G_5  D_5       
     e( 59 - 60) =      7.18654  eV     2   --> G_5  D_5       
     e( 61 - 62) =      7.97701  eV     2   --> G_5  D_5       
     e( 63 - 64) =      8.40988  eV     2   --> G_5  D_5       
     e( 65 - 66) =      9.44537  eV     2   --> G_5  D_5       
     e( 67 - 68) =      9.96909  eV     2   --> G_5  D_5       
     e( 69 - 70) =     10.28821  eV     2   --> G_5  D_5       
     e( 71 - 72) =     10.72007  eV     2   --> G_5  D_5       

 **************************************************************************

 **************************************************************************

                    xk=(   0.00000,   0.13279,   0.00000  )

     Band symmetry, C_2v (mm2)  double point group:

     e(  1 -  2) =    -66.77049  eV     2   --> G_5  D_5       
     e(  3 -  4) =    -42.52844  eV     2   --> G_5  D_5       
     e(  5 -  6) =    -40.08868  eV     2   --> G_5  D_5       
     e(  7 -  8) =    -39.96714  eV     2   --> G_5  D_5       
     e(  9 - 10) =    -19.84272  eV     2   --> G_5  D_5       
     e( 11 - 12) =    -18.64885  eV     2   --> G_5  D_5       
     e( 13 - 14) =    -11.33305  eV     2   --> G_5  D_5       
     e( 15 - 16) =     -8.97199  eV     2   --> G_5  D_5       
     e( 17 - 18) =     -8.45111  eV     2   --> G_5  D_5       
     e( 19 - 20) =     -8.35467  eV     2   --> G_5  D_5       
     e( 21 - 22) =     -7.73918  eV     2   --> G_5  D_5       
     e( 23 - 24) =     -7.02520  eV     2   --> G_5  D_5       
     e( 25 - 26) =     -6.04624  eV     2   --> G_5  D_5       
     e( 27 - 28) =     -3.40305  eV     2   --> G_5  D_5       
     e( 29 - 30) =     -3.34160  eV     2   --> G_5  D_5       
     e( 31 - 32) =     -3.13364  eV     2   --> G_5  D_5       
     e( 33 - 34) =     -2.84057  eV     2   --> G_5  D_5       
     e( 35 - 36) =     -0.14623  eV     2   --> G_5  D_5       
     e( 37 - 38) =     -0.02888  eV     2   --> G_5  D_5       
     e( 39 - 40) =      1.16975  eV     2   --> G_5  D_5       
     e( 41 - 42) =      1.91074  eV     2   --> G_5  D_5       
     e( 43 - 44) =      1.94090  eV     2   --> G_5  D_5       
     e( 45 - 46) =      3.95955  eV     2   --> G_5  D_5       
     e( 47 - 48) =      4.20784  eV     2   --> G_5  D_5       
     e( 49 - 50) =      4.79850  eV     2   --> G_5  D_5       
     e( 51 - 52) =      4.81853  eV     2   --> G_5  D_5       
     e( 53 - 54) =      5.64819  eV     2   --> G_5  D_5       
     e( 55 - 56) =      5.92106  eV     2   --> G_5  D_5       
     e( 57 - 58) =      6.77553  eV     2   --> G_5  D_5       
     e( 59 - 60) =      7.19716  eV     2   --> G_5  D_5       
     e( 61 - 62) =      7.97817  eV     2   --> G_5  D_5       
     e( 63 - 64) =      8.40589  eV     2   --> G_5  D_5       
     e( 65 - 66) =      9.40146  eV     2   --> G_5  D_5       
     e( 67 - 68) =      9.91626  eV     2   --> G_5  D_5       
     e( 69 - 70) =     10.26660  eV     2   --> G_5  D_5       
     e( 71 - 72) =     10.74405  eV     2   --> G_5  D_5       

 **************************************************************************

 **************************************************************************

                    xk=(   0.00000,   0.13856,   0.00000  )

     Band symmetry, C_2v (mm2)  double point group:

     e(  1 -  2) =    -66.77010  eV     2   --> G_5  D_5       
     e(  3 -  4) =    -42.52954  eV     2   --> G_5  D_5       
     e(  5 -  6) =    -40.08929  eV     2   --> G_5  D_5       
     e(  7 -  8) =    -39.96957  eV     2   --> G_5  D_5       
     e(  9 - 10) =    -19.82614  eV     2   --> G_5  D_5       
     e( 11 - 12) =    -18.64210  eV     2   --> G_5  D_5       
     e( 13 - 14) =    -11.31553  eV     2   --> G_5  D_5       
     e( 15 - 16) =     -9.00326  eV     2   --> G_5  D_5       
     e( 17 - 18) =     -8.48793  eV     2   --> G_5  D_5       
     e( 19 - 20) =     -8.33961  eV     2   --> G_5  D_5       
     e( 21 - 22) =     -7.76194  eV     2   --> G_5  D_5       
     e( 23 - 24) =     -7.01740  eV     2   --> G_5  D_5       
     e( 25 - 26) =     -6.05892  eV     2   --> G_5  D_5       
     e( 27 - 28) =     -3.42570  eV     2   --> G_5  D_5       
     e( 29 - 30) =     -3.35247  eV     2   --> G_5  D_5       
     e( 31 - 32) =     -3.14934  eV     2   --> G_5  D_5       
     e( 33 - 34) =     -2.81662  eV     2   --> G_5  D_5       
     e( 35 - 36) =     -0.12165  eV     2   --> G_5  D_5       
     e( 37 - 38) =     -0.00651  eV     2   --> G_5  D_5       
     e( 39 - 40) =      1.22827  eV     2   --> G_5  D_5       
     e( 41 - 42) =      1.93854  eV     2   --> G_5  D_5       
     e( 43 - 44) =      1.96222  eV     2   --> G_5  D_5       
     e( 45 - 46) =      4.00939  eV     2   --> G_5  D_5       
     e( 47 - 48) =      4.19035  eV     2   --> G_5  D_5       
     e( 49 - 50) =      4.80070  eV     2   --> G_5  D_5       
     e( 51 - 52) =      4.83275  eV     2   --> G_5  D_5       
     e( 53 - 54) =      5.69885  eV     2   --> G_5  D_5       
     e( 55 - 56) =      5.86660  eV     2   --> G_5  D_5       
     e( 57 - 58) =      6.76490  eV     2   --> G_5  D_5       
     e( 59 - 60) =      7.20882  eV     2   --> G_5  D_5       
     e( 61 - 62) =      7.97970  eV     2   --> G_5  D_5       
     e( 63 - 64) =      8.39902  eV     2   --> G_5  D_5       
     e( 65 - 66) =      9.36267  eV     2   --> G_5  D_5       
     e( 67 - 68) =      9.86232  eV     2   --> G_5  D_5       
     e( 69 - 70) =     10.24531  eV     2   --> G_5  D_5       
     e( 71 - 72) =     10.76938  eV     2   --> G_5  D_5       

 **************************************************************************

 **************************************************************************

                    xk=(   0.00000,   0.14434,   0.00000  )

     Band symmetry, C_2v (mm2)  double point group:

     e(  1 -  2) =    -66.76969  eV     2   --> G_5  D_5       
     e(  3 -  4) =    -42.53068  eV     2   --> G_5  D_5       
     e(  5 -  6) =    -40.08996  eV     2   --> G_5  D_5       
     e(  7 -  8) =    -39.97204  eV     2   --> G_5  D_5       
     e(  9 - 10) =    -19.80893  eV     2   --> G_5  D_5       
     e( 11 - 12) =    -18.63511  eV     2   --> G_5  D_5       
     e( 13 - 14) =    -11.29756  eV     2   --> G_5  D_5       
     e( 15 - 16) =     -9.03511  eV     2   --> G_5  D_5       
     e( 17 - 18) =     -8.52588  eV     2   --> G_5  D_5       
     e( 19 - 20) =     -8.32289  eV     2   --> G_5  D_5       
     e( 21 - 22) =     -7.78520  eV     2   --> G_5  D_5       
     e( 23 - 24) =     -7.01110  eV     2   --> G_5  D_5       
     e( 25 - 26) =     -6.07250  eV     2   --> G_5  D_5       
     e( 27 - 28) =     -3.44975  eV     2   --> G_5  D_5       
     e( 29 - 30) =     -3.36029  eV     2   --> G_5  D_5       
     e( 31 - 32) =     -3.16539  eV     2   --> G_5  D_5       
     e( 33 - 34) =     -2.79212  eV     2   --> G_5  D_5       
     e( 35 - 36) =     -0.09650  eV     2   --> G_5  D_5       
     e( 37 - 38) =      0.01674  eV     2   --> G_5  D_5       
     e( 39 - 40) =      1.28722  eV     2   --> G_5  D_5       
     e( 41 - 42) =      1.96812  eV     2   --> G_5  D_5       
     e( 43 - 44) =      1.98437  eV     2   --> G_5  D_5       
     e( 45 - 46) =      4.05590  eV     2   --> G_5  D_5       
     e( 47 - 48) =      4.17209  eV     2   --> G_5  D_5       
     e( 49 - 50) =      4.80478  eV     2   --> G_5  D_5       
     e( 51 - 52) =      4.84748  eV     2   --> G_5  D_5       
     e( 53 - 54) =      5.75100  eV     2   --> G_5  D_5       
     e( 55 - 56) =      5.81699  eV     2   --> G_5  D_5       
     e( 57 - 58) =      6.75245  eV     2   --> G_5  D_5       
     e( 59 - 60) =      7.22135  eV     2   --> G_5  D_5       
     e( 61 - 62) =      7.98160  eV     2   --> G_5  D_5       
     e( 63 - 64) =      8.38903  eV     2   --> G_5  D_5       
     e( 65 - 66) =      9.32959  eV     2   --> G_5  D_5       
     e( 67 - 68) =      9.80734  eV     2   --> G_5  D_5       
     e( 69 - 70) =     10.22462  eV     2   --> G_5  D_5       
     e( 71 - 72) =     10.79553  eV     2   --> G_5  D_5       

 **************************************************************************

 **************************************************************************

                    xk=(   0.00000,   0.15011,   0.00000  )

     Band symmetry, C_2v (mm2)  double point group:

     e(  1 -  2) =    -66.76927  eV     2   --> G_5  D_5       
     e(  3 -  4) =    -42.53186  eV     2   --> G_5  D_5       
     e(  5 -  6) =    -40.09066  eV     2   --> G_5  D_5       
     e(  7 -  8) =    -39.97457  eV     2   --> G_5  D_5       
     e(  9 - 10) =    -19.79110  eV     2   --> G_5  D_5       
     e( 11 - 12) =    -18.62786  eV     2   --> G_5  D_5       
     e( 13 - 14) =    -11.27921  eV     2   --> G_5  D_5       
     e( 15 - 16) =     -9.06748  eV     2   --> G_5  D_5       
     e( 17 - 18) =     -8.56434  eV     2   --> G_5  D_5       
     e( 19 - 20) =     -8.30519  eV     2   --> G_5  D_5       
     e( 21 - 22) =     -7.80893  eV     2   --> G_5  D_5       
     e( 23 - 24) =     -7.00635  eV     2   --> G_5  D_5       
     e( 25 - 26) =     -6.08701  eV     2   --> G_5  D_5       
     e( 27 - 28) =     -3.47432  eV     2   --> G_5  D_5       
     e( 29 - 30) =     -3.36579  eV     2   --> G_5  D_5       
     e( 31 - 32) =     -3.18175  eV     2   --> G_5  D_5       
     e( 33 - 34) =     -2.76718  eV     2   --> G_5  D_5       
     e( 35 - 36) =     -0.07077  eV     2   --> G_5  D_5       
     e( 37 - 38) =      0.04087  eV     2   --> G_5  D_5       
     e( 39 - 40) =      1.34619  eV     2   --> G_5  D_5       
     e( 41 - 42) =      1.99953  eV     2   --> G_5  D_5       
     e( 43 - 44) =      2.00737  eV     2   --> G_5  D_5       
     e( 45 - 46) =      4.09495  eV     2   --> G_5  D_5       
     e( 47 - 48) =      4.15604  eV     2   --> G_5  D_5       
     e( 49 - 50) =      4.81061  eV     2   --> G_5  D_5       
     e( 51 - 52) =      4.86266  eV     2   --> G_5  D_5       
     e( 53 - 54) =      5.77190  eV     2   --> G_5  D_5       
     e( 55 - 56) =      5.80476  eV     2   --> G_5  D_5       
     e( 57 - 58) =      6.73813  eV     2   --> G_5  D_5       
     e( 59 - 60) =      7.23433  eV     2   --> G_5  D_5       
     e( 61 - 62) =      7.98363  eV     2   --> G_5  D_5       
     e( 63 - 64) =      8.37522  eV     2   --> G_5  D_5       
     e( 65 - 66) =      9.30112  eV     2   --> G_5  D_5       
     e( 67 - 68) =      9.75119  eV     2   --> G_5  D_5       
     e( 69 - 70) =     10.20409  eV     2   --> G_5  D_5       
     e( 71 - 72) =     10.82118  eV     2   --> G_5  D_5       

 **************************************************************************

 **************************************************************************

                    xk=(   0.00000,   0.15588,   0.00000  )

     Band symmetry, C_2v (mm2)  double point group:

     e(  1 -  2) =    -66.76883  eV     2   --> G_5  D_5       
     e(  3 -  4) =    -42.53307  eV     2   --> G_5  D_5       
     e(  5 -  6) =    -40.09142  eV     2   --> G_5  D_5       
     e(  7 -  8) =    -39.97714  eV     2   --> G_5  D_5       
     e(  9 - 10) =    -19.77268  eV     2   --> G_5  D_5       
     e( 11 - 12) =    -18.62037  eV     2   --> G_5  D_5       
     e( 13 - 14) =    -11.26051  eV     2   --> G_5  D_5       
     e( 15 - 16) =     -9.10028  eV     2   --> G_5  D_5       
     e( 17 - 18) =     -8.60306  eV     2   --> G_5  D_5       
     e( 19 - 20) =     -8.28671  eV     2   --> G_5  D_5       
     e( 21 - 22) =     -7.83304  eV     2   --> G_5  D_5       
     e( 23 - 24) =     -7.00314  eV     2   --> G_5  D_5       
     e( 25 - 26) =     -6.10245  eV     2   --> G_5  D_5       
     e( 27 - 28) =     -3.49883  eV     2   --> G_5  D_5       
     e( 29 - 30) =     -3.36932  eV     2   --> G_5  D_5       
     e( 31 - 32) =     -3.19831  eV     2   --> G_5  D_5       
     e( 33 - 34) =     -2.74177  eV     2   --> G_5  D_5       
     e( 35 - 36) =     -0.04446  eV     2   --> G_5  D_5       
     e( 37 - 38) =      0.06589  eV     2   --> G_5  D_5       
     e( 39 - 40) =      1.40490  eV     2   --> G_5  D_5       
     e( 41 - 42) =      2.03077  eV     2   --> G_5  D_5       
     e( 43 - 44) =      2.03342  eV     2   --> G_5  D_5       
     e( 45 - 46) =      4.10890  eV     2   --> G_5  D_5       
     e( 47 - 48) =      4.15947  eV     2   --> G_5  D_5       
     e( 49 - 50) =      4.81825  eV     2   --> G_5  D_5       
     e( 51 - 52) =      4.87858  eV     2   --> G_5  D_5       
     e( 53 - 54) =      5.73390  eV     2   --> G_5  D_5       
     e( 55 - 56) =      5.86010  eV     2   --> G_5  D_5       
     e( 57 - 58) =      6.72242  eV     2   --> G_5  D_5       
     e( 59 - 60) =      7.24904  eV     2   --> G_5  D_5       
     e( 61 - 62) =      7.98585  eV     2   --> G_5  D_5       
     e( 63 - 64) =      8.35775  eV     2   --> G_5  D_5       
     e( 65 - 66) =      9.27853  eV     2   --> G_5  D_5       
     e( 67 - 68) =      9.69449  eV     2   --> G_5  D_5       
     e( 69 - 70) =     10.18437  eV     2   --> G_5  D_5       
     e( 71 - 72) =     10.84832  eV     2   --> G_5  D_5       

 **************************************************************************

 **************************************************************************

                    xk=(   0.00000,   0.16166,   0.00000  )

     Band symmetry, C_2v (mm2)  double point group:

     e(  1 -  2) =    -66.76839  eV     2   --> G_5  D_5       
     e(  3 -  4) =    -42.53433  eV     2   --> G_5  D_5       
     e(  5 -  6) =    -40.09223  eV     2   --> G_5  D_5       
     e(  7 -  8) =    -39.97974  eV     2   --> G_5  D_5       
     e(  9 - 10) =    -19.75366  eV     2   --> G_5  D_5       
     e( 11 - 12) =    -18.61264  eV     2   --> G_5  D_5       
     e( 13 - 14) =    -11.24152  eV     2   --> G_5  D_5       
     e( 15 - 16) =     -9.13346  eV     2   --> G_5  D_5       
     e( 17 - 18) =     -8.64198  eV     2   --> G_5  D_5       
     e( 19 - 20) =     -8.26759  eV     2   --> G_5  D_5       
     e( 21 - 22) =     -7.85752  eV     2   --> G_5  D_5       
     e( 23 - 24) =     -7.00146  eV     2   --> G_5  D_5       
     e( 25 - 26) =     -6.11884  eV     2   --> G_5  D_5       
     e( 27 - 28) =     -3.52298  eV     2   --> G_5  D_5       
     e( 29 - 30) =     -3.37114  eV     2   --> G_5  D_5       
     e( 31 - 32) =     -3.21502  eV     2   --> G_5  D_5       
     e( 33 - 34) =     -2.71607  eV     2   --> G_5  D_5       
     e( 35 - 36) =     -0.01758  eV     2   --> G_5  D_5       
     e( 37 - 38) =      0.09177  eV     2   --> G_5  D_5       
     e( 39 - 40) =      1.46298  eV     2   --> G_5  D_5       
     e( 41 - 42) =      2.05555  eV     2   --> G_5  D_5       
     e( 43 - 44) =      2.06893  eV     2   --> G_5  D_5       
     e( 45 - 46) =      4.09334  eV     2   --> G_5  D_5       
     e( 47 - 48) =      4.18492  eV     2   --> G_5  D_5       
     e( 49 - 50) =      4.82731  eV     2   --> G_5  D_5       
     e( 51 - 52) =      4.89558  eV     2   --> G_5  D_5       
     e( 53 - 54) =      5.70248  eV     2   --> G_5  D_5       
     e( 55 - 56) =      5.91714  eV     2   --> G_5  D_5       
     e( 57 - 58) =      6.70498  eV     2   --> G_5  D_5       
     e( 59 - 60) =      7.26373  eV     2   --> G_5  D_5       
     e( 61 - 62) =      7.98779  eV     2   --> G_5  D_5       
     e( 63 - 64) =      8.33657  eV     2   --> G_5  D_5       
     e( 65 - 66) =      9.26182  eV     2   --> G_5  D_5       
     e( 67 - 68) =      9.63657  eV     2   --> G_5  D_5       
     e( 69 - 70) =     10.16411  eV     2   --> G_5  D_5       
     e( 71 - 72) =     10.87585  eV     2   --> G_5  D_5       

 **************************************************************************

 **************************************************************************

                    xk=(   0.00000,   0.16743,   0.00000  )

     Band symmetry, C_2v (mm2)  double point group:

     e(  1 -  2) =    -66.76793  eV     2   --> G_5  D_5       
     e(  3 -  4) =    -42.53562  eV     2   --> G_5  D_5       
     e(  5 -  6) =    -40.09310  eV     2   --> G_5  D_5       
     e(  7 -  8) =    -39.98237  eV     2   --> G_5  D_5       
     e(  9 - 10) =    -19.73406  eV     2   --> G_5  D_5       
     e( 11 - 12) =    -18.60468  eV     2   --> G_5  D_5       
     e( 13 - 14) =    -11.22230  eV     2   --> G_5  D_5       
     e( 15 - 16) =     -9.16686  eV     2   --> G_5  D_5       
[...]
     e( 57 - 57) =      7.01424  eV     1   --> G_4            
     e( 58 - 58) =      7.01495  eV     1   --> G_3            
     e( 59 - 59) =      7.09657  eV     1   --> G_3            
     e( 60 - 60) =      7.09743  eV     1   --> G_4            
     e( 61 - 62) =      8.00129  eV     2   --> G_3            
     e( 61 - 62) =      8.00129  eV     2   --> G_4            
     e( 63 - 64) =      8.33379  eV     2   --> G_3            
     e( 63 - 64) =      8.33379  eV     2   --> G_4            
     e( 65 - 65) =     10.31387  eV     1   --> G_4            
     e( 66 - 66) =     10.31809  eV     1   --> G_3            
     e( 67 - 67) =     10.40949  eV     1   --> G_3            
     e( 68 - 68) =     10.41608  eV     1   --> G_4            
     e( 69 - 69) =     10.45108  eV     1   --> G_4            
     e( 70 - 70) =     10.45351  eV     1   --> G_3            
     e( 71 - 71) =     10.58023  eV     1   --> G_4            
     e( 72 - 72) =     10.58848  eV     1   --> G_3            

 **************************************************************************

 **************************************************************************

                    xk=(   0.01000,   0.01732,   0.00000  )

     Band symmetry, C_s (m)     double point group:

     e(  1 -  2) =    -66.77505  eV     2   --> G_3            
     e(  1 -  2) =    -66.77505  eV     2   --> G_4            
     e(  3 -  4) =    -42.51590  eV     2   --> G_3            
     e(  3 -  4) =    -42.51590  eV     2   --> G_4            
     e(  5 -  6) =    -40.08284  eV     2   --> G_3            
     e(  5 -  6) =    -40.08284  eV     2   --> G_4            
     e(  7 -  8) =    -39.93751  eV     2   --> G_3            
     e(  7 -  8) =    -39.93751  eV     2   --> G_4            
     e(  9 - 10) =    -20.03022  eV     2   --> G_3            
     e(  9 - 10) =    -20.03022  eV     2   --> G_4            
     e( 11 - 12) =    -18.72513  eV     2   --> G_3            
     e( 11 - 12) =    -18.72513  eV     2   --> G_4            
     e( 13 - 14) =    -11.54290  eV     2   --> G_3            
     e( 13 - 14) =    -11.54290  eV     2   --> G_4            
     e( 15 - 15) =     -8.59849  eV     1   --> G_3            
     e( 16 - 16) =     -8.59804  eV     1   --> G_4            
     e( 17 - 17) =     -8.53297  eV     1   --> G_4            
     e( 18 - 18) =     -8.53251  eV     1   --> G_3            
     e( 19 - 19) =     -7.75563  eV     1   --> G_3            
     e( 20 - 20) =     -7.75550  eV     1   --> G_4            
     e( 21 - 21) =     -7.47537  eV     1   --> G_4            
     e( 22 - 22) =     -7.47406  eV     1   --> G_3            
     e( 23 - 23) =     -7.38372  eV     1   --> G_3            
     e( 24 - 24) =     -7.38250  eV     1   --> G_4            
     e( 25 - 26) =     -5.93355  eV     2   --> G_3            
     e( 25 - 26) =     -5.93355  eV     2   --> G_4            
     e( 27 - 27) =     -3.20976  eV     1   --> G_4            
     e( 28 - 28) =     -3.20858  eV     1   --> G_3            
     e( 29 - 29) =     -3.12919  eV     1   --> G_3            
     e( 30 - 30) =     -3.12817  eV     1   --> G_4            
     e( 31 - 31) =     -2.93861  eV     1   --> G_3            
     e( 32 - 32) =     -2.93524  eV     1   --> G_4            
     e( 33 - 33) =     -2.92994  eV     1   --> G_4            
     e( 34 - 34) =     -2.92665  eV     1   --> G_3            
     e( 35 - 36) =     -0.47281  eV     2   --> G_3            
     e( 35 - 36) =     -0.47281  eV     2   --> G_4            
     e( 37 - 38) =     -0.27901  eV     2   --> G_3            
     e( 37 - 38) =     -0.27901  eV     2   --> G_4            
     e( 39 - 40) =      0.41426  eV     2   --> G_3            
     e( 39 - 40) =      0.41426  eV     2   --> G_4            
     e( 41 - 42) =      1.62625  eV     2   --> G_3            
     e( 41 - 42) =      1.62625  eV     2   --> G_4            
     e( 43 - 44) =      1.70193  eV     2   --> G_3            
     e( 43 - 44) =      1.70193  eV     2   --> G_4            
     e( 45 - 46) =      3.18246  eV     2   --> G_3            
     e( 45 - 46) =      3.18246  eV     2   --> G_4            
     e( 47 - 48) =      4.27189  eV     2   --> G_3            
     e( 47 - 48) =      4.27189  eV     2   --> G_4            
     e( 49 - 50) =      4.62793  eV     2   --> G_3            
     e( 49 - 50) =      4.62793  eV     2   --> G_4            
     e( 51 - 51) =      4.99973  eV     1   --> G_3            
     e( 52 - 52) =      5.00106  eV     1   --> G_4            
     e( 53 - 53) =      5.08541  eV     1   --> G_4            
     e( 54 - 54) =      5.08673  eV     1   --> G_3            
     e( 55 - 56) =      6.72533  eV     2   --> G_3            
     e( 55 - 56) =      6.72533  eV     2   --> G_4            
     e( 57 - 57) =      7.04729  eV     1   --> G_4            
     e( 58 - 58) =      7.04787  eV     1   --> G_3            
     e( 59 - 59) =      7.09591  eV     1   --> G_3            
     e( 60 - 60) =      7.09655  eV     1   --> G_4            
     e( 61 - 62) =      8.00269  eV     2   --> G_3            
     e( 61 - 62) =      8.00269  eV     2   --> G_4            
     e( 63 - 64) =      8.33078  eV     2   --> G_3            
     e( 63 - 64) =      8.33078  eV     2   --> G_4            
     e( 65 - 65) =     10.32091  eV     1   --> G_4            
     e( 66 - 66) =     10.32311  eV     1   --> G_3            
     e( 67 - 67) =     10.40444  eV     1   --> G_3            
     e( 68 - 68) =     10.40838  eV     1   --> G_4            
     e( 69 - 69) =     10.43448  eV     1   --> G_4            
     e( 70 - 70) =     10.43624  eV     1   --> G_3            
     e( 71 - 71) =     10.59729  eV     1   --> G_4            
     e( 72 - 72) =     10.60065  eV     1   --> G_3            

 **************************************************************************

 **************************************************************************

                    xk=(   0.00667,   0.01155,   0.00000  )

     Band symmetry, C_s (m)     double point group:

     e(  1 -  2) =    -66.77511  eV     2   --> G_3            
     e(  1 -  2) =    -66.77511  eV     2   --> G_4            
     e(  3 -  4) =    -42.51573  eV     2   --> G_3            
     e(  3 -  4) =    -42.51573  eV     2   --> G_4            
     e(  5 -  6) =    -40.08277  eV     2   --> G_3            
     e(  5 -  6) =    -40.08277  eV     2   --> G_4            
     e(  7 -  8) =    -39.93709  eV     2   --> G_3            
     e(  7 -  8) =    -39.93709  eV     2   --> G_4            
     e(  9 - 10) =    -20.03270  eV     2   --> G_3            
     e(  9 - 10) =    -20.03270  eV     2   --> G_4            
     e( 11 - 12) =    -18.72614  eV     2   --> G_3            
     e( 11 - 12) =    -18.72614  eV     2   --> G_4            
     e( 13 - 14) =    -11.54580  eV     2   --> G_3            
     e( 13 - 14) =    -11.54580  eV     2   --> G_4            
     e( 15 - 15) =     -8.59606  eV     1   --> G_3            
     e( 16 - 16) =     -8.59592  eV     1   --> G_4            
     e( 17 - 17) =     -8.53189  eV     1   --> G_4            
     e( 18 - 18) =     -8.53175  eV     1   --> G_3            
     e( 19 - 20) =     -7.73070  eV     2   --> G_3            
     e( 19 - 20) =     -7.73070  eV     2   --> G_4            
     e( 21 - 21) =     -7.47995  eV     1   --> G_4            
     e( 22 - 22) =     -7.47948  eV     1   --> G_3            
     e( 23 - 23) =     -7.39554  eV     1   --> G_3            
     e( 24 - 24) =     -7.39512  eV     1   --> G_4            
     e( 25 - 26) =     -5.93246  eV     2   --> G_3            
     e( 25 - 26) =     -5.93246  eV     2   --> G_4            
     e( 27 - 27) =     -3.20904  eV     1   --> G_4            
     e( 28 - 28) =     -3.20868  eV     1   --> G_3            
     e( 29 - 29) =     -3.12928  eV     1   --> G_3            
     e( 30 - 30) =     -3.12897  eV     1   --> G_4            
     e( 31 - 31) =     -2.93044  eV     1   --> G_3            
     e( 32 - 32) =     -2.92822  eV     1   --> G_4            
     e( 33 - 33) =     -2.92653  eV     1   --> G_4            
     e( 34 - 34) =     -2.92433  eV     1   --> G_3            
     e( 35 - 36) =     -0.47833  eV     2   --> G_3            
     e( 35 - 36) =     -0.47833  eV     2   --> G_4            
     e( 37 - 38) =     -0.28230  eV     2   --> G_3            
     e( 37 - 38) =     -0.28230  eV     2   --> G_4            
     e( 39 - 40) =      0.40348  eV     2   --> G_3            
     e( 39 - 40) =      0.40348  eV     2   --> G_4            
     e( 41 - 42) =      1.62269  eV     2   --> G_3            
     e( 41 - 42) =      1.62269  eV     2   --> G_4            
     e( 43 - 44) =      1.69879  eV     2   --> G_3            
     e( 43 - 44) =      1.69879  eV     2   --> G_4            
     e( 45 - 46) =      3.16997  eV     2   --> G_3            
     e( 45 - 46) =      3.16997  eV     2   --> G_4            
     e( 47 - 48) =      4.27073  eV     2   --> G_3            
     e( 47 - 48) =      4.27073  eV     2   --> G_4            
     e( 49 - 50) =      4.62517  eV     2   --> G_3            
     e( 49 - 50) =      4.62517  eV     2   --> G_4            
     e( 51 - 51) =      5.00107  eV     1   --> G_3            
     e( 52 - 52) =      5.00150  eV     1   --> G_4            
     e( 53 - 53) =      5.08350  eV     1   --> G_4            
     e( 54 - 54) =      5.08393  eV     1   --> G_3            
     e( 55 - 56) =      6.72156  eV     2   --> G_3            
     e( 55 - 56) =      6.72156  eV     2   --> G_4            
     e( 57 - 57) =      7.07053  eV     1   --> G_4            
     e( 58 - 58) =      7.07091  eV     1   --> G_3            
     e( 59 - 59) =      7.09581  eV     1   --> G_3            
     e( 60 - 60) =      7.09622  eV     1   --> G_4            
     e( 61 - 62) =      8.00371  eV     2   --> G_3            
     e( 61 - 62) =      8.00371  eV     2   --> G_4            
     e( 63 - 64) =      8.32857  eV     2   --> G_3            
     e( 63 - 64) =      8.32857  eV     2   --> G_4            
     e( 65 - 65) =     10.31092  eV     1   --> G_4            
     e( 66 - 66) =     10.31146  eV     1   --> G_3            
     e( 67 - 67) =     10.40983  eV     1   --> G_3            
     e( 68 - 68) =     10.41104  eV     1   --> G_4            
     e( 69 - 69) =     10.42904  eV     1   --> G_4            
     e( 70 - 70) =     10.42973  eV     1   --> G_3            
     e( 71 - 71) =     10.60838  eV     1   --> G_4            
     e( 72 - 72) =     10.60978  eV     1   --> G_3            

 **************************************************************************

 **************************************************************************

                    xk=(   0.00333,   0.00577,   0.00000  )

     Band symmetry, C_s (m)     double point group:

     e(  1 -  2) =    -66.77515  eV     2   --> G_3            
     e(  1 -  2) =    -66.77515  eV     2   --> G_4            
     e(  3 -  4) =    -42.51563  eV     2   --> G_3            
     e(  3 -  4) =    -42.51563  eV     2   --> G_4            
     e(  5 -  6) =    -40.08273  eV     2   --> G_3            
     e(  5 -  6) =    -40.08273  eV     2   --> G_4            
     e(  7 -  8) =    -39.93684  eV     2   --> G_3            
     e(  7 -  8) =    -39.93684  eV     2   --> G_4            
     e(  9 - 10) =    -20.03419  eV     2   --> G_3            
     e(  9 - 10) =    -20.03419  eV     2   --> G_4            
     e( 11 - 12) =    -18.72675  eV     2   --> G_3            
     e( 11 - 12) =    -18.72675  eV     2   --> G_4            
     e( 13 - 14) =    -11.54753  eV     2   --> G_3            
     e( 13 - 14) =    -11.54753  eV     2   --> G_4            
     e( 15 - 16) =     -8.59488  eV     2   --> G_3            
     e( 15 - 16) =     -8.59488  eV     2   --> G_4            
     e( 17 - 18) =     -8.53101  eV     2   --> G_3            
     e( 17 - 18) =     -8.53101  eV     2   --> G_4            
     e( 19 - 20) =     -7.71373  eV     2   --> G_3            
     e( 19 - 20) =     -7.71373  eV     2   --> G_4            
     e( 21 - 22) =     -7.48572  eV     2   --> G_3            
     e( 21 - 22) =     -7.48572  eV     2   --> G_4            
     e( 23 - 24) =     -7.40171  eV     2   --> G_3            
     e( 23 - 24) =     -7.40171  eV     2   --> G_4            
     e( 25 - 26) =     -5.93181  eV     2   --> G_3            
     e( 25 - 26) =     -5.93181  eV     2   --> G_4            
     e( 27 - 28) =     -3.20889  eV     2   --> G_3            
     e( 27 - 28) =     -3.20889  eV     2   --> G_4            
     e( 29 - 30) =     -3.12917  eV     2   --> G_3            
     e( 29 - 30) =     -3.12917  eV     2   --> G_4            
     e( 31 - 31) =     -2.92528  eV     1   --> G_3            
     e( 32 - 32) =     -2.92443  eV     1   --> G_4            
     e( 33 - 33) =     -2.92399  eV     1   --> G_4            
     e( 34 - 34) =     -2.92314  eV     1   --> G_3            
     e( 35 - 36) =     -0.48167  eV     2   --> G_3            
     e( 35 - 36) =     -0.48167  eV     2   --> G_4            
     e( 37 - 38) =     -0.28427  eV     2   --> G_3            
     e( 37 - 38) =     -0.28427  eV     2   --> G_4            
     e( 39 - 40) =      0.39701  eV     2   --> G_3            
     e( 39 - 40) =      0.39701  eV     2   --> G_4            
     e( 41 - 42) =      1.62056  eV     2   --> G_3            
     e( 41 - 42) =      1.62056  eV     2   --> G_4            
     e( 43 - 44) =      1.69691  eV     2   --> G_3            
     e( 43 - 44) =      1.69691  eV     2   --> G_4            
     e( 45 - 46) =      3.16254  eV     2   --> G_3            
     e( 45 - 46) =      3.16254  eV     2   --> G_4            
     e( 47 - 48) =      4.27002  eV     2   --> G_3            
     e( 47 - 48) =      4.27002  eV     2   --> G_4            
     e( 49 - 50) =      4.62352  eV     2   --> G_3            
     e( 49 - 50) =      4.62352  eV     2   --> G_4            
     e( 51 - 52) =      5.00135  eV     2   --> G_3            
     e( 51 - 52) =      5.00135  eV     2   --> G_4            
     e( 53 - 54) =      5.08311  eV     2   --> G_3            
     e( 53 - 54) =      5.08311  eV     2   --> G_4            
     e( 55 - 56) =      6.71929  eV     2   --> G_3            
     e( 55 - 56) =      6.71929  eV     2   --> G_4            
     e( 57 - 57) =      7.08303  eV     1   --> G_4            
     e( 58 - 58) =      7.08326  eV     1   --> G_3            
     e( 59 - 59) =      7.09809  eV     1   --> G_3            
     e( 60 - 60) =      7.09833  eV     1   --> G_4            
     e( 61 - 62) =      8.00434  eV     2   --> G_3            
     e( 61 - 62) =      8.00434  eV     2   --> G_4            
     e( 63 - 64) =      8.32726  eV     2   --> G_3            
     e( 63 - 64) =      8.32726  eV     2   --> G_4            
     e( 65 - 66) =     10.29944  eV     2   --> G_3            
     e( 65 - 66) =     10.29944  eV     2   --> G_4            
     e( 67 - 67) =     10.41553  eV     1   --> G_3            
     e( 68 - 68) =     10.41575  eV     1   --> G_4            
     e( 69 - 69) =     10.42878  eV     1   --> G_4            
     e( 70 - 70) =     10.42894  eV     1   --> G_3            
     e( 71 - 71) =     10.61636  eV     1   --> G_3            
     e( 72 - 72) =     10.61662  eV     1   --> G_4            

 **************************************************************************

 **************************************************************************

                    xk=(   0.00000,   0.00000,   0.00000  )

     double point group D_3h (-62m)
     there are  9 classes and  3 irreducible representations
     the character table:

       E     -E    2C3   -2C3   3C2'  s_h  2S3   -2S3   3s_v
                               -3C2' -s_h'             -3s_v
G_7    2.00 -2.00  1.00 -1.00  0.00  0.00  1.73 -1.73  0.00
G_8    2.00 -2.00  1.00 -1.00  0.00  0.00 -1.73  1.73  0.00
G_9    2.00 -2.00 -2.00  2.00  0.00  0.00  0.00  0.00  0.00

     the symmetry operations in each class and the name of the first element:

     E             1
                                                                 
     -E           -1
                                                                 
     2C3           3    4
                                                                 
     -2C3         -3   -4
                                                                 
      3C2'-3C2'    2   -6    5   -2   -5    6
                                                                 
      s_h -s_h'    7   -7
                                                                 
     2S3           9   10
                                                                 
     -2S3         -9  -10
                                                                 
      3s_v-3s_v    8   -8  -11  -12   11   12
                                                                 

     Band symmetry, D_3h (-62m) double point group:

     e(  1 -  2) =    -66.77516  eV     2   --> G_7            
     e(  3 -  4) =    -42.51560  eV     2   --> G_8            
     e(  5 -  6) =    -40.08272  eV     2   --> G_8            
     e(  7 -  8) =    -39.93675  eV     2   --> G_9            
     e(  9 - 10) =    -20.03468  eV     2   --> G_7            
     e( 11 - 12) =    -18.72695  eV     2   --> G_8            
     e( 13 - 14) =    -11.54812  eV     2   --> G_7            
     e( 15 - 16) =     -8.59454  eV     2   --> G_9            
     e( 17 - 18) =     -8.53067  eV     2   --> G_8            
     e( 19 - 20) =     -7.70761  eV     2   --> G_8            
     e( 21 - 22) =     -7.48838  eV     2   --> G_7            
     e( 23 - 24) =     -7.40357  eV     2   --> G_9            
     e( 25 - 26) =     -5.93165  eV     2   --> G_7            
     e( 27 - 28) =     -3.20891  eV     2   --> G_7            
     e( 29 - 30) =     -3.12911  eV     2   --> G_9            
     e( 31 - 32) =     -2.92336  eV     2   --> G_8            
     e( 33 - 34) =     -2.92293  eV     2   --> G_9            
     e( 35 - 36) =     -0.48279  eV     2   --> G_7            
     e( 37 - 38) =     -0.28493  eV     2   --> G_8            
     e( 39 - 40) =      0.39471  eV     2   --> G_7            
     e( 41 - 42) =      1.61982  eV     2   --> G_7            
     e( 43 - 44) =      1.69628  eV     2   --> G_8            
     e( 45 - 46) =      3.16004  eV     2   --> G_8            
     e( 47 - 48) =      4.26972  eV     2   --> G_7            
     e( 49 - 50) =      4.62297  eV     2   --> G_8            
     e( 51 - 52) =      5.00163  eV     2   --> G_8            
     e( 53 - 54) =      5.08339  eV     2   --> G_9            
     e( 55 - 56) =      6.71820  eV     2   --> G_7            
     e( 57 - 58) =      7.08602  eV     2   --> G_7            
     e( 59 - 60) =      7.10016  eV     2   --> G_9            
     e( 61 - 62) =      8.00453  eV     2   --> G_7            
     e( 63 - 64) =      8.32682  eV     2   --> G_8            
     e( 65 - 66) =     10.29493  eV     2   --> G_8            
     e( 67 - 68) =     10.41601  eV     2   --> G_7            
     e( 69 - 70) =     10.42871  eV     2   --> G_9            
     e( 71 - 72) =     10.61961  eV     2   --> G_8            

 **************************************************************************

     BANDS        :   6m31.54s CPU   8m19.40s WALL


   This run was terminated on:  13:42:59  19Oct2023            

=------------------------------------------------------------------------------=
   JOB DONE.
=------------------------------------------------------------------------------=
