
     Program PWSCF v.7.2 starts on 28Sep2023 at 10: 5:15 

     This program is part of the open-source Quantum ESPRESSO suite
     for quantum simulation of materials; please cite
         "P. Giannozzi et al., J. Phys.:Condens. Matter 21 395502 (2009);
         "P. Giannozzi et al., J. Phys.:Condens. Matter 29 465901 (2017);
         "P. Giannozzi et al., J. Chem. Phys. 152 154105 (2020);
          URL http://www.quantum-espresso.org", 
     in publications or presentations arising from this work. More details at
     http://www.quantum-espresso.org/quote

     Parallel version (MPI), running on     4 processors

     MPI processes distributed on     1 nodes
     6304 MiB available memory on the printing compute node when the environment starts

     Reading input from nscf.in

     Current dimensions of program PWSCF are:
     Max number of different atomic species (ntypx) = 10
     Max number of k-points (npk) =  40000
     Max angular momentum in pseudopotentials (lmaxx) =  4

     Atomic positions and unit cell read from directory:
     ./TMD.save/
     Atomic positions from file used, from input discarded

Error reading attribute index: expected integer, found *
     Message from routine setup:
     using ibrav=0 with symmetry is DISCOURAGED, use correct ibrav instead

     R & G space division:  proc/nbgrp/npool/nimage =       4
     Subspace diagonalization in iterative solution of the eigenvalue problem:
     a serial algorithm will be used


     Parallelization info
     --------------------
     sticks:   dense  smooth     PW     G-vecs:    dense   smooth      PW
     Min          99      99     40                11671    11671    3212
     Max         100     100     41                11680    11680    3241
     Sum         397     397    163                46701    46701   12925

     Using Slab Decomposition



     bravais-lattice index     =            0
     lattice parameter (alat)  =       6.0157  a.u.
     unit-cell volume          =    1370.5212 (a.u.)^3
     number of atoms/cell      =            3
     number of atomic types    =            2
     number of electrons       =        26.00
     number of Kohn-Sham states=           72
     kinetic-energy cutoff     =      40.0000  Ry
     charge density cutoff     =     160.0000  Ry
     Exchange-correlation= PBE
                           (   1   4   3   4   0   0   0)
     Non magnetic calculation with spin-orbit


     celldm(1)=   6.015677  celldm(2)=   0.000000  celldm(3)=   0.000000
     celldm(4)=   0.000000  celldm(5)=   0.000000  celldm(6)=   0.000000

     crystal axes: (cart. coord. in units of alat)
               a(1) = (   1.000000   0.000000   0.000000 )  
               a(2) = (  -0.500000   0.866025   0.000000 )  
               a(3) = (   0.000000   0.000000   7.269451 )  

     reciprocal axes: (cart. coord. in units 2 pi/alat)
               b(1) = (  1.000000  0.577350 -0.000000 )  
               b(2) = (  0.000000  1.154701  0.000000 )  
               b(3) = (  0.000000 -0.000000  0.137562 )  


     PseudoPot. # 1 for Mo read from file:
     ../pseudo/SG15/Mo_ONCV_PBE_FR-1.0.upf
     MD5 check sum: 05288ac22f87858946b79311c37e479e
     Pseudo is Norm-conserving, Zval = 14.0
     Generated using ONCVPSP code by D. R. Hamann
     Using radial grid of  602 points, 10 beta functions with: 
                l(1) =   0
                l(2) =   0
                l(3) =   1
                l(4) =   1
                l(5) =   1
                l(6) =   1
                l(7) =   2
                l(8) =   2
                l(9) =   2
               l(10) =   2

     PseudoPot. # 2 for S  read from file:
     ../pseudo/SG15/S_ONCV_PBE_FR-1.1.upf
     MD5 check sum: 520a35214b8921ef5a3e305e16abb38a
     Pseudo is Norm-conserving, Zval =  6.0
     Generated using ONCVPSP code by D. R. Hamann
     Using radial grid of  602 points,  6 beta functions with: 
                l(1) =   0
                l(2) =   0
                l(3) =   1
                l(4) =   1
                l(5) =   1
                l(6) =   1

     atomic species   valence    mass     pseudopotential
        Mo            14.00    95.94000     Mo( 1.00)
        S              6.00    32.05900     S ( 1.00)

     12 Sym. Ops. (no inversion) found


                                    s                        frac. trans.

      isym =  1     identity                                     

 cryst.   s( 1) = (     1          0          0      )
                  (     0          1          0      )
                  (     0          0          1      )

 cart.    s( 1) = (  1.0000000  0.0000000  0.0000000 )
                  (  0.0000000  1.0000000  0.0000000 )
                  (  0.0000000  0.0000000  1.0000000 )


      isym =  2     180 deg rotation - cart. axis [0,1,0]        

 cryst.   s( 2) = (    -1          0          0      )
                  (     1          1          0      )
                  (     0          0         -1      )

 cart.    s( 2) = ( -1.0000000  0.0000000  0.0000000 )
                  (  0.0000000  1.0000000  0.0000000 )
                  (  0.0000000  0.0000000 -1.0000000 )


      isym =  3     120 deg rotation - cryst. axis [0,0,1]       

 cryst.   s( 3) = (     0          1          0      )
                  (    -1         -1          0      )
                  (     0          0          1      )

 cart.    s( 3) = ( -0.5000000 -0.8660254  0.0000000 )
                  (  0.8660254 -0.5000000  0.0000000 )
                  (  0.0000000  0.0000000  1.0000000 )


      isym =  4     120 deg rotation - cryst. axis [0,0,-1]      

 cryst.   s( 4) = (    -1         -1          0      )
                  (     1          0          0      )
                  (     0          0          1      )

 cart.    s( 4) = ( -0.5000000  0.8660254  0.0000000 )
                  ( -0.8660254 -0.5000000  0.0000000 )
                  (  0.0000000  0.0000000  1.0000000 )


      isym =  5     180 deg rotation - cryst. axis [1,-1,0]      

 cryst.   s( 5) = (     0         -1          0      )
                  (    -1          0          0      )
                  (     0          0         -1      )

 cart.    s( 5) = (  0.5000000 -0.8660254  0.0000000 )
                  ( -0.8660254 -0.5000000  0.0000000 )
                  (  0.0000000  0.0000000 -1.0000000 )


      isym =  6     180 deg rotation - cryst. axis [2,1,0]       

 cryst.   s( 6) = (     1          1          0      )
                  (     0         -1          0      )
                  (     0          0         -1      )

 cart.    s( 6) = (  0.5000000  0.8660254  0.0000000 )
                  (  0.8660254 -0.5000000  0.0000000 )
                  (  0.0000000  0.0000000 -1.0000000 )


      isym =  7     inv. 180 deg rotation - cart. axis [0,0,1]   

 cryst.   s( 7) = (     1          0          0      )
                  (     0          1          0      )
                  (     0          0         -1      )

 cart.    s( 7) = (  1.0000000  0.0000000  0.0000000 )
                  (  0.0000000  1.0000000  0.0000000 )
                  (  0.0000000  0.0000000 -1.0000000 )


      isym =  8     inv. 180 deg rotation - cart. axis [1,0,0]   

 cryst.   s( 8) = (    -1          0          0      )
                  (     1          1          0      )
                  (     0          0          1      )

 cart.    s( 8) = ( -1.0000000  0.0000000  0.0000000 )
                  (  0.0000000  1.0000000  0.0000000 )
                  (  0.0000000  0.0000000  1.0000000 )


      isym =  9     inv.  60 deg rotation - cryst. axis [0,0,1]  

 cryst.   s( 9) = (    -1         -1          0      )
                  (     1          0          0      )
                  (     0          0         -1      )

 cart.    s( 9) = ( -0.5000000  0.8660254  0.0000000 )
                  ( -0.8660254 -0.5000000  0.0000000 )
                  (  0.0000000  0.0000000 -1.0000000 )


      isym = 10     inv.  60 deg rotation - cryst. axis [0,0,-1] 

 cryst.   s(10) = (     0          1          0      )
                  (    -1         -1          0      )
                  (     0          0         -1      )

 cart.    s(10) = ( -0.5000000 -0.8660254  0.0000000 )
                  (  0.8660254 -0.5000000  0.0000000 )
                  (  0.0000000  0.0000000 -1.0000000 )


      isym = 11     inv. 180 deg rotation - cryst. axis [0,1,0]  

 cryst.   s(11) = (     1          1          0      )
                  (     0         -1          0      )
                  (     0          0          1      )

 cart.    s(11) = (  0.5000000  0.8660254  0.0000000 )
                  (  0.8660254 -0.5000000  0.0000000 )
                  (  0.0000000  0.0000000  1.0000000 )


      isym = 12     inv. 180 deg rotation - cryst. axis [1,1,0]  

 cryst.   s(12) = (     0         -1          0      )
                  (    -1          0          0      )
                  (     0          0          1      )

 cart.    s(12) = (  0.5000000 -0.8660254  0.0000000 )
                  ( -0.8660254 -0.5000000  0.0000000 )
                  (  0.0000000  0.0000000  1.0000000 )


   Cartesian axes

     site n.     atom                  positions (alat units)
         1           Mo  tau(   1) = (   0.0000000   0.5773503   3.6347257  )
         2           S   tau(   2) = (   0.5000000   0.2886751   4.1254875  )
         3           S   tau(   3) = (   0.5000000   0.2886751   3.1439638  )

   Crystallographic axes

     site n.     atom                  positions (cryst. coord.)
         1           Mo  tau(   1) = (  0.3333333  0.6666667  0.5000000  )
         2           S   tau(   2) = (  0.6666667  0.3333333  0.5675102  )
         3           S   tau(   3) = (  0.6666667  0.3333333  0.4324898  )

     number of k points=   144
                       cart. coord. in units 2pi/alat
        k(    1) = (   0.0000000   0.0000000   0.0000000), wk =   0.0069444
        k(    2) = (   0.0000000   0.0962250   0.0000000), wk =   0.0069444
        k(    3) = (   0.0000000   0.1924501   0.0000000), wk =   0.0069444
        k(    4) = (   0.0000000   0.2886751   0.0000000), wk =   0.0069444
        k(    5) = (   0.0000000   0.3849002   0.0000000), wk =   0.0069444
        k(    6) = (   0.0000000   0.4811252   0.0000000), wk =   0.0069444
        k(    7) = (   0.0000000   0.5773503   0.0000000), wk =   0.0069444
        k(    8) = (   0.0000000   0.6735753   0.0000000), wk =   0.0069444
        k(    9) = (   0.0000000   0.7698004   0.0000000), wk =   0.0069444
        k(   10) = (   0.0000000   0.8660254   0.0000000), wk =   0.0069444
        k(   11) = (   0.0000000   0.9622504   0.0000000), wk =   0.0069444
        k(   12) = (   0.0000000   1.0584755   0.0000000), wk =   0.0069444
        k(   13) = (   0.0833333   0.0481125   0.0000000), wk =   0.0069444
        k(   14) = (   0.0833333   0.1443376   0.0000000), wk =   0.0069444
        k(   15) = (   0.0833333   0.2405626   0.0000000), wk =   0.0069444
        k(   16) = (   0.0833333   0.3367877   0.0000000), wk =   0.0069444
        k(   17) = (   0.0833333   0.4330127   0.0000000), wk =   0.0069444
        k(   18) = (   0.0833333   0.5292377   0.0000000), wk =   0.0069444
        k(   19) = (   0.0833333   0.6254628   0.0000000), wk =   0.0069444
        k(   20) = (   0.0833333   0.7216878   0.0000000), wk =   0.0069444
        k(   21) = (   0.0833333   0.8179129   0.0000000), wk =   0.0069444
        k(   22) = (   0.0833333   0.9141379   0.0000000), wk =   0.0069444
        k(   23) = (   0.0833333   1.0103630   0.0000000), wk =   0.0069444
        k(   24) = (   0.0833333   1.1065880   0.0000000), wk =   0.0069444
        k(   25) = (   0.1666667   0.0962250   0.0000000), wk =   0.0069444
        k(   26) = (   0.1666667   0.1924501   0.0000000), wk =   0.0069444
        k(   27) = (   0.1666667   0.2886751   0.0000000), wk =   0.0069444
        k(   28) = (   0.1666667   0.3849002   0.0000000), wk =   0.0069444
        k(   29) = (   0.1666667   0.4811252   0.0000000), wk =   0.0069444
        k(   30) = (   0.1666667   0.5773503   0.0000000), wk =   0.0069444
        k(   31) = (   0.1666667   0.6735753   0.0000000), wk =   0.0069444
        k(   32) = (   0.1666667   0.7698004   0.0000000), wk =   0.0069444
        k(   33) = (   0.1666667   0.8660254   0.0000000), wk =   0.0069444
        k(   34) = (   0.1666667   0.9622505   0.0000000), wk =   0.0069444
        k(   35) = (   0.1666667   1.0584755   0.0000000), wk =   0.0069444
        k(   36) = (   0.1666667   1.1547005   0.0000000), wk =   0.0069444
        k(   37) = (   0.2500000   0.1443376   0.0000000), wk =   0.0069444
        k(   38) = (   0.2500000   0.2405626   0.0000000), wk =   0.0069444
        k(   39) = (   0.2500000   0.3367877   0.0000000), wk =   0.0069444
        k(   40) = (   0.2500000   0.4330127   0.0000000), wk =   0.0069444
        k(   41) = (   0.2500000   0.5292377   0.0000000), wk =   0.0069444
        k(   42) = (   0.2500000   0.6254628   0.0000000), wk =   0.0069444
        k(   43) = (   0.2500000   0.7216878   0.0000000), wk =   0.0069444
        k(   44) = (   0.2500000   0.8179129   0.0000000), wk =   0.0069444
        k(   45) = (   0.2500000   0.9141379   0.0000000), wk =   0.0069444
        k(   46) = (   0.2500000   1.0103630   0.0000000), wk =   0.0069444
        k(   47) = (   0.2500000   1.1065880   0.0000000), wk =   0.0069444
        k(   48) = (   0.2500000   1.2028131   0.0000000), wk =   0.0069444
        k(   49) = (   0.3333333   0.1924501   0.0000000), wk =   0.0069444
        k(   50) = (   0.3333333   0.2886751   0.0000000), wk =   0.0069444
        k(   51) = (   0.3333333   0.3849002   0.0000000), wk =   0.0069444
        k(   52) = (   0.3333333   0.4811252   0.0000000), wk =   0.0069444
        k(   53) = (   0.3333333   0.5773503   0.0000000), wk =   0.0069444
        k(   54) = (   0.3333333   0.6735753   0.0000000), wk =   0.0069444
        k(   55) = (   0.3333333   0.7698004   0.0000000), wk =   0.0069444
        k(   56) = (   0.3333333   0.8660254   0.0000000), wk =   0.0069444
        k(   57) = (   0.3333333   0.9622505   0.0000000), wk =   0.0069444
        k(   58) = (   0.3333333   1.0584755   0.0000000), wk =   0.0069444
        k(   59) = (   0.3333333   1.1547005   0.0000000), wk =   0.0069444
        k(   60) = (   0.3333333   1.2509256   0.0000000), wk =   0.0069444
        k(   61) = (   0.4166667   0.2405626   0.0000000), wk =   0.0069444
        k(   62) = (   0.4166667   0.3367877   0.0000000), wk =   0.0069444
        k(   63) = (   0.4166667   0.4330127   0.0000000), wk =   0.0069444
        k(   64) = (   0.4166667   0.5292377   0.0000000), wk =   0.0069444
        k(   65) = (   0.4166667   0.6254628   0.0000000), wk =   0.0069444
        k(   66) = (   0.4166667   0.7216878   0.0000000), wk =   0.0069444
        k(   67) = (   0.4166667   0.8179129   0.0000000), wk =   0.0069444
        k(   68) = (   0.4166667   0.9141379   0.0000000), wk =   0.0069444
        k(   69) = (   0.4166667   1.0103630   0.0000000), wk =   0.0069444
        k(   70) = (   0.4166667   1.1065880   0.0000000), wk =   0.0069444
        k(   71) = (   0.4166667   1.2028131   0.0000000), wk =   0.0069444
        k(   72) = (   0.4166667   1.2990381   0.0000000), wk =   0.0069444
        k(   73) = (   0.5000000   0.2886751   0.0000000), wk =   0.0069444
        k(   74) = (   0.5000000   0.3849002   0.0000000), wk =   0.0069444
        k(   75) = (   0.5000000   0.4811252   0.0000000), wk =   0.0069444
        k(   76) = (   0.5000000   0.5773503   0.0000000), wk =   0.0069444
        k(   77) = (   0.5000000   0.6735753   0.0000000), wk =   0.0069444
        k(   78) = (   0.5000000   0.7698004   0.0000000), wk =   0.0069444
        k(   79) = (   0.5000000   0.8660254   0.0000000), wk =   0.0069444
        k(   80) = (   0.5000000   0.9622504   0.0000000), wk =   0.0069444
        k(   81) = (   0.5000000   1.0584755   0.0000000), wk =   0.0069444
        k(   82) = (   0.5000000   1.1547005   0.0000000), wk =   0.0069444
        k(   83) = (   0.5000000   1.2509256   0.0000000), wk =   0.0069444
        k(   84) = (   0.5000000   1.3471506   0.0000000), wk =   0.0069444
        k(   85) = (   0.5833333   0.3367877   0.0000000), wk =   0.0069444
        k(   86) = (   0.5833333   0.4330127   0.0000000), wk =   0.0069444
        k(   87) = (   0.5833333   0.5292377   0.0000000), wk =   0.0069444
        k(   88) = (   0.5833333   0.6254628   0.0000000), wk =   0.0069444
        k(   89) = (   0.5833333   0.7216878   0.0000000), wk =   0.0069444
        k(   90) = (   0.5833333   0.8179129   0.0000000), wk =   0.0069444
        k(   91) = (   0.5833333   0.9141379   0.0000000), wk =   0.0069444
        k(   92) = (   0.5833333   1.0103630   0.0000000), wk =   0.0069444
        k(   93) = (   0.5833333   1.1065880   0.0000000), wk =   0.0069444
        k(   94) = (   0.5833333   1.2028131   0.0000000), wk =   0.0069444
        k(   95) = (   0.5833333   1.2990381   0.0000000), wk =   0.0069444
        k(   96) = (   0.5833333   1.3952632   0.0000000), wk =   0.0069444
        k(   97) = (   0.6666667   0.3849002   0.0000000), wk =   0.0069444
        k(   98) = (   0.6666667   0.4811252   0.0000000), wk =   0.0069444
        k(   99) = (   0.6666667   0.5773503   0.0000000), wk =   0.0069444
        k(  100) = (   0.6666667   0.6735753   0.0000000), wk =   0.0069444
        k(  101) = (   0.6666667   0.7698004   0.0000000), wk =   0.0069444
        k(  102) = (   0.6666667   0.8660254   0.0000000), wk =   0.0069444
        k(  103) = (   0.6666667   0.9622505   0.0000000), wk =   0.0069444
        k(  104) = (   0.6666667   1.0584755   0.0000000), wk =   0.0069444
        k(  105) = (   0.6666667   1.1547005   0.0000000), wk =   0.0069444
        k(  106) = (   0.6666667   1.2509256   0.0000000), wk =   0.0069444
        k(  107) = (   0.6666667   1.3471506   0.0000000), wk =   0.0069444
        k(  108) = (   0.6666667   1.4433757   0.0000000), wk =   0.0069444
        k(  109) = (   0.7500000   0.4330127   0.0000000), wk =   0.0069444
        k(  110) = (   0.7500000   0.5292377   0.0000000), wk =   0.0069444
        k(  111) = (   0.7500000   0.6254628   0.0000000), wk =   0.0069444
        k(  112) = (   0.7500000   0.7216878   0.0000000), wk =   0.0069444
        k(  113) = (   0.7500000   0.8179129   0.0000000), wk =   0.0069444
        k(  114) = (   0.7500000   0.9141379   0.0000000), wk =   0.0069444
        k(  115) = (   0.7500000   1.0103630   0.0000000), wk =   0.0069444
        k(  116) = (   0.7500000   1.1065880   0.0000000), wk =   0.0069444
        k(  117) = (   0.7500000   1.2028131   0.0000000), wk =   0.0069444
        k(  118) = (   0.7500000   1.2990381   0.0000000), wk =   0.0069444
        k(  119) = (   0.7500000   1.3952631   0.0000000), wk =   0.0069444
        k(  120) = (   0.7500000   1.4914882   0.0000000), wk =   0.0069444
        k(  121) = (   0.8333333   0.4811252   0.0000000), wk =   0.0069444
        k(  122) = (   0.8333333   0.5773503   0.0000000), wk =   0.0069444
        k(  123) = (   0.8333333   0.6735753   0.0000000), wk =   0.0069444
        k(  124) = (   0.8333333   0.7698004   0.0000000), wk =   0.0069444
        k(  125) = (   0.8333333   0.8660254   0.0000000), wk =   0.0069444
        k(  126) = (   0.8333333   0.9622505   0.0000000), wk =   0.0069444
        k(  127) = (   0.8333333   1.0584755   0.0000000), wk =   0.0069444
        k(  128) = (   0.8333333   1.1547005   0.0000000), wk =   0.0069444
        k(  129) = (   0.8333333   1.2509256   0.0000000), wk =   0.0069444
        k(  130) = (   0.8333333   1.3471506   0.0000000), wk =   0.0069444
        k(  131) = (   0.8333333   1.4433757   0.0000000), wk =   0.0069444
        k(  132) = (   0.8333333   1.5396007   0.0000000), wk =   0.0069444
        k(  133) = (   0.9166667   0.5292377   0.0000000), wk =   0.0069444
        k(  134) = (   0.9166667   0.6254628   0.0000000), wk =   0.0069444
        k(  135) = (   0.9166667   0.7216878   0.0000000), wk =   0.0069444
        k(  136) = (   0.9166667   0.8179129   0.0000000), wk =   0.0069444
        k(  137) = (   0.9166667   0.9141379   0.0000000), wk =   0.0069444
        k(  138) = (   0.9166667   1.0103630   0.0000000), wk =   0.0069444
        k(  139) = (   0.9166667   1.1065880   0.0000000), wk =   0.0069444
        k(  140) = (   0.9166667   1.2028131   0.0000000), wk =   0.0069444
        k(  141) = (   0.9166667   1.2990381   0.0000000), wk =   0.0069444
        k(  142) = (   0.9166667   1.3952632   0.0000000), wk =   0.0069444
        k(  143) = (   0.9166667   1.4914882   0.0000000), wk =   0.0069444
        k(  144) = (   0.9166667   1.5877132   0.0000000), wk =   0.0069444

                       cryst. coord.
        k(    1) = (   0.0000000   0.0000000   0.0000000), wk =   0.0069444
        k(    2) = (   0.0000000   0.0833333   0.0000000), wk =   0.0069444
        k(    3) = (   0.0000000   0.1666667   0.0000000), wk =   0.0069444
        k(    4) = (   0.0000000   0.2500000   0.0000000), wk =   0.0069444
        k(    5) = (   0.0000000   0.3333333   0.0000000), wk =   0.0069444
        k(    6) = (   0.0000000   0.4166667   0.0000000), wk =   0.0069444
        k(    7) = (   0.0000000   0.5000000   0.0000000), wk =   0.0069444
        k(    8) = (   0.0000000   0.5833333   0.0000000), wk =   0.0069444
        k(    9) = (   0.0000000   0.6666667   0.0000000), wk =   0.0069444
        k(   10) = (   0.0000000   0.7500000   0.0000000), wk =   0.0069444
        k(   11) = (   0.0000000   0.8333333   0.0000000), wk =   0.0069444
        k(   12) = (   0.0000000   0.9166667   0.0000000), wk =   0.0069444
        k(   13) = (   0.0833333   0.0000000   0.0000000), wk =   0.0069444
        k(   14) = (   0.0833333   0.0833333   0.0000000), wk =   0.0069444
        k(   15) = (   0.0833333   0.1666667   0.0000000), wk =   0.0069444
        k(   16) = (   0.0833333   0.2500000   0.0000000), wk =   0.0069444
        k(   17) = (   0.0833333   0.3333333   0.0000000), wk =   0.0069444
        k(   18) = (   0.0833333   0.4166667   0.0000000), wk =   0.0069444
        k(   19) = (   0.0833333   0.5000000   0.0000000), wk =   0.0069444
        k(   20) = (   0.0833333   0.5833333   0.0000000), wk =   0.0069444
        k(   21) = (   0.0833333   0.6666667   0.0000000), wk =   0.0069444
        k(   22) = (   0.0833333   0.7500000   0.0000000), wk =   0.0069444
        k(   23) = (   0.0833333   0.8333333   0.0000000), wk =   0.0069444
        k(   24) = (   0.0833333   0.9166667   0.0000000), wk =   0.0069444
        k(   25) = (   0.1666667   0.0000000   0.0000000), wk =   0.0069444
        k(   26) = (   0.1666667   0.0833333   0.0000000), wk =   0.0069444
        k(   27) = (   0.1666667   0.1666667   0.0000000), wk =   0.0069444
        k(   28) = (   0.1666667   0.2500000   0.0000000), wk =   0.0069444
        k(   29) = (   0.1666667   0.3333333   0.0000000), wk =   0.0069444
        k(   30) = (   0.1666667   0.4166667   0.0000000), wk =   0.0069444
        k(   31) = (   0.1666667   0.5000000   0.0000000), wk =   0.0069444
        k(   32) = (   0.1666667   0.5833333   0.0000000), wk =   0.0069444
        k(   33) = (   0.1666667   0.6666667   0.0000000), wk =   0.0069444
        k(   34) = (   0.1666667   0.7500000   0.0000000), wk =   0.0069444
        k(   35) = (   0.1666667   0.8333333   0.0000000), wk =   0.0069444
        k(   36) = (   0.1666667   0.9166667   0.0000000), wk =   0.0069444
        k(   37) = (   0.2500000   0.0000000   0.0000000), wk =   0.0069444
        k(   38) = (   0.2500000   0.0833333   0.0000000), wk =   0.0069444
        k(   39) = (   0.2500000   0.1666667   0.0000000), wk =   0.0069444
        k(   40) = (   0.2500000   0.2500000   0.0000000), wk =   0.0069444
        k(   41) = (   0.2500000   0.3333333   0.0000000), wk =   0.0069444
        k(   42) = (   0.2500000   0.4166667   0.0000000), wk =   0.0069444
        k(   43) = (   0.2500000   0.5000000   0.0000000), wk =   0.0069444
        k(   44) = (   0.2500000   0.5833333   0.0000000), wk =   0.0069444
        k(   45) = (   0.2500000   0.6666667   0.0000000), wk =   0.0069444
        k(   46) = (   0.2500000   0.7500000   0.0000000), wk =   0.0069444
        k(   47) = (   0.2500000   0.8333333   0.0000000), wk =   0.0069444
        k(   48) = (   0.2500000   0.9166667   0.0000000), wk =   0.0069444
        k(   49) = (   0.3333333   0.0000000   0.0000000), wk =   0.0069444
        k(   50) = (   0.3333333   0.0833333   0.0000000), wk =   0.0069444
        k(   51) = (   0.3333333   0.1666667   0.0000000), wk =   0.0069444
        k(   52) = (   0.3333333   0.2500000   0.0000000), wk =   0.0069444
        k(   53) = (   0.3333333   0.3333333   0.0000000), wk =   0.0069444
        k(   54) = (   0.3333333   0.4166667   0.0000000), wk =   0.0069444
        k(   55) = (   0.3333333   0.5000000   0.0000000), wk =   0.0069444
        k(   56) = (   0.3333333   0.5833333   0.0000000), wk =   0.0069444
        k(   57) = (   0.3333333   0.6666667   0.0000000), wk =   0.0069444
        k(   58) = (   0.3333333   0.7500000   0.0000000), wk =   0.0069444
        k(   59) = (   0.3333333   0.8333333   0.0000000), wk =   0.0069444
        k(   60) = (   0.3333333   0.9166667   0.0000000), wk =   0.0069444
        k(   61) = (   0.4166667   0.0000000   0.0000000), wk =   0.0069444
        k(   62) = (   0.4166667   0.0833333   0.0000000), wk =   0.0069444
        k(   63) = (   0.4166667   0.1666667   0.0000000), wk =   0.0069444
        k(   64) = (   0.4166667   0.2500000   0.0000000), wk =   0.0069444
        k(   65) = (   0.4166667   0.3333333   0.0000000), wk =   0.0069444
        k(   66) = (   0.4166667   0.4166667   0.0000000), wk =   0.0069444
        k(   67) = (   0.4166667   0.5000000   0.0000000), wk =   0.0069444
        k(   68) = (   0.4166667   0.5833333   0.0000000), wk =   0.0069444
        k(   69) = (   0.4166667   0.6666667   0.0000000), wk =   0.0069444
        k(   70) = (   0.4166667   0.7500000   0.0000000), wk =   0.0069444
        k(   71) = (   0.4166667   0.8333333   0.0000000), wk =   0.0069444
        k(   72) = (   0.4166667   0.9166667   0.0000000), wk =   0.0069444
        k(   73) = (   0.5000000   0.0000000   0.0000000), wk =   0.0069444
        k(   74) = (   0.5000000   0.0833333   0.0000000), wk =   0.0069444
        k(   75) = (   0.5000000   0.1666667   0.0000000), wk =   0.0069444
        k(   76) = (   0.5000000   0.2500000   0.0000000), wk =   0.0069444
        k(   77) = (   0.5000000   0.3333333   0.0000000), wk =   0.0069444
        k(   78) = (   0.5000000   0.4166667   0.0000000), wk =   0.0069444
        k(   79) = (   0.5000000   0.5000000   0.0000000), wk =   0.0069444
        k(   80) = (   0.5000000   0.5833333   0.0000000), wk =   0.0069444
        k(   81) = (   0.5000000   0.6666667   0.0000000), wk =   0.0069444
        k(   82) = (   0.5000000   0.7500000   0.0000000), wk =   0.0069444
        k(   83) = (   0.5000000   0.8333333   0.0000000), wk =   0.0069444
        k(   84) = (   0.5000000   0.9166667   0.0000000), wk =   0.0069444
        k(   85) = (   0.5833333   0.0000000   0.0000000), wk =   0.0069444
        k(   86) = (   0.5833333   0.0833333   0.0000000), wk =   0.0069444
        k(   87) = (   0.5833333   0.1666667   0.0000000), wk =   0.0069444
        k(   88) = (   0.5833333   0.2500000   0.0000000), wk =   0.0069444
        k(   89) = (   0.5833333   0.3333333   0.0000000), wk =   0.0069444
        k(   90) = (   0.5833333   0.4166667   0.0000000), wk =   0.0069444
        k(   91) = (   0.5833333   0.5000000   0.0000000), wk =   0.0069444
        k(   92) = (   0.5833333   0.5833333   0.0000000), wk =   0.0069444
        k(   93) = (   0.5833333   0.6666667   0.0000000), wk =   0.0069444
        k(   94) = (   0.5833333   0.7500000   0.0000000), wk =   0.0069444
        k(   95) = (   0.5833333   0.8333333   0.0000000), wk =   0.0069444
        k(   96) = (   0.5833333   0.9166667   0.0000000), wk =   0.0069444
        k(   97) = (   0.6666667   0.0000000   0.0000000), wk =   0.0069444
        k(   98) = (   0.6666667   0.0833333   0.0000000), wk =   0.0069444
        k(   99) = (   0.6666667   0.1666667   0.0000000), wk =   0.0069444
        k(  100) = (   0.6666667   0.2500000   0.0000000), wk =   0.0069444
        k(  101) = (   0.6666667   0.3333333   0.0000000), wk =   0.0069444
        k(  102) = (   0.6666667   0.4166667   0.0000000), wk =   0.0069444
        k(  103) = (   0.6666667   0.5000000   0.0000000), wk =   0.0069444
        k(  104) = (   0.6666667   0.5833333   0.0000000), wk =   0.0069444
        k(  105) = (   0.6666667   0.6666667   0.0000000), wk =   0.0069444
        k(  106) = (   0.6666667   0.7500000   0.0000000), wk =   0.0069444
        k(  107) = (   0.6666667   0.8333333   0.0000000), wk =   0.0069444
        k(  108) = (   0.6666667   0.9166667   0.0000000), wk =   0.0069444
        k(  109) = (   0.7500000   0.0000000   0.0000000), wk =   0.0069444
        k(  110) = (   0.7500000   0.0833333   0.0000000), wk =   0.0069444
        k(  111) = (   0.7500000   0.1666667   0.0000000), wk =   0.0069444
        k(  112) = (   0.7500000   0.2500000   0.0000000), wk =   0.0069444
        k(  113) = (   0.7500000   0.3333333   0.0000000), wk =   0.0069444
        k(  114) = (   0.7500000   0.4166667   0.0000000), wk =   0.0069444
        k(  115) = (   0.7500000   0.5000000   0.0000000), wk =   0.0069444
        k(  116) = (   0.7500000   0.5833333   0.0000000), wk =   0.0069444
        k(  117) = (   0.7500000   0.6666667   0.0000000), wk =   0.0069444
        k(  118) = (   0.7500000   0.7500000   0.0000000), wk =   0.0069444
        k(  119) = (   0.7500000   0.8333333   0.0000000), wk =   0.0069444
        k(  120) = (   0.7500000   0.9166667   0.0000000), wk =   0.0069444
        k(  121) = (   0.8333333   0.0000000   0.0000000), wk =   0.0069444
        k(  122) = (   0.8333333   0.0833333   0.0000000), wk =   0.0069444
        k(  123) = (   0.8333333   0.1666667   0.0000000), wk =   0.0069444
        k(  124) = (   0.8333333   0.2500000   0.0000000), wk =   0.0069444
        k(  125) = (   0.8333333   0.3333333   0.0000000), wk =   0.0069444
        k(  126) = (   0.8333333   0.4166667   0.0000000), wk =   0.0069444
        k(  127) = (   0.8333333   0.5000000   0.0000000), wk =   0.0069444
        k(  128) = (   0.8333333   0.5833333   0.0000000), wk =   0.0069444
        k(  129) = (   0.8333333   0.6666667   0.0000000), wk =   0.0069444
        k(  130) = (   0.8333333   0.7500000   0.0000000), wk =   0.0069444
        k(  131) = (   0.8333333   0.8333333   0.0000000), wk =   0.0069444
        k(  132) = (   0.8333333   0.9166667   0.0000000), wk =   0.0069444
        k(  133) = (   0.9166667   0.0000000   0.0000000), wk =   0.0069444
        k(  134) = (   0.9166667   0.0833333   0.0000000), wk =   0.0069444
        k(  135) = (   0.9166667   0.1666667   0.0000000), wk =   0.0069444
        k(  136) = (   0.9166667   0.2500000   0.0000000), wk =   0.0069444
        k(  137) = (   0.9166667   0.3333333   0.0000000), wk =   0.0069444
        k(  138) = (   0.9166667   0.4166667   0.0000000), wk =   0.0069444
        k(  139) = (   0.9166667   0.5000000   0.0000000), wk =   0.0069444
        k(  140) = (   0.9166667   0.5833333   0.0000000), wk =   0.0069444
        k(  141) = (   0.9166667   0.6666667   0.0000000), wk =   0.0069444
        k(  142) = (   0.9166667   0.7500000   0.0000000), wk =   0.0069444
        k(  143) = (   0.9166667   0.8333333   0.0000000), wk =   0.0069444
        k(  144) = (   0.9166667   0.9166667   0.0000000), wk =   0.0069444

     Dense  grid:    46701 G-vectors     FFT dimensions: (  25,  25, 180)

     Dynamical RAM for                 wfc:       3.21 MB

     Dynamical RAM for     wfc (w. buffer):       3.21 MB

     Dynamical RAM for           str. fact:       0.36 MB

     Dynamical RAM for           local pot:       0.00 MB

     Dynamical RAM for          nlocal pot:       1.38 MB

     Dynamical RAM for                qrad:       5.32 MB

     Dynamical RAM for          rho,v,vnew:       4.71 MB

     Dynamical RAM for           G-vectors:       0.76 MB

     Dynamical RAM for          h,s,v(r/c):       0.95 MB

     Dynamical RAM for          <psi|beta>:       0.14 MB

     Dynamical RAM for                 psi:       6.43 MB

     Dynamical RAM for                hpsi:       6.43 MB

     Dynamical RAM for      wfcinit/wfcrot:       4.94 MB

     Estimated static dynamical RAM per process >      18.00 MB

     Estimated max dynamical RAM per process >      31.94 MB

     Estimated total dynamical RAM >     127.76 MB
 ----2D----2D----2D----2D----2D----2D----2D----2D----2D----2D----2D----2D
  The code is running with the 2D cutoff
  Please refer to:
  Sohier, T., Calandra, M., & Mauri, F. (2017), 
  Density functional perturbation theory for gated two-dimensional heterostructures:
  Theoretical developments and application to flexural phonons in graphene.
  Physical Review B, 96(7), 75448. https://doi.org/10.1103/PhysRevB.96.075448
 ----2D----2D----2D----2D----2D----2D----2D----2D----2D----2D----2D----2D

     The potential is recalculated from file :
     ./TMD.save/charge-density

     Starting wfcs are random

     Band Structure Calculation
     Davidson diagonalization with overlap

     Computing kpt #:     1  of   144
     total cpu time spent up to now is      214.7 secs

     Computing kpt #:     2  of   144
     total cpu time spent up to now is      312.1 secs

     Computing kpt #:     3  of   144
     total cpu time spent up to now is      349.0 secs

     Computing kpt #:     4  of   144
     total cpu time spent up to now is      399.3 secs

     Computing kpt #:     5  of   144
     total cpu time spent up to now is      448.0 secs

     Computing kpt #:     6  of   144
     total cpu time spent up to now is      495.6 secs

     Computing kpt #:     7  of   144
     total cpu time spent up to now is      537.2 secs

     Computing kpt #:     8  of   144
     total cpu time spent up to now is      588.7 secs

     Computing kpt #:     9  of   144
     total cpu time spent up to now is      637.0 secs

     Computing kpt #:    10  of   144
     total cpu time spent up to now is      688.1 secs

     Computing kpt #:    11  of   144
     total cpu time spent up to now is      726.9 secs

     Computing kpt #:    12  of   144
     total cpu time spent up to now is      766.3 secs

     Computing kpt #:    13  of   144
     total cpu time spent up to now is      806.0 secs

     Computing kpt #:    14  of   144
     total cpu time spent up to now is      839.6 secs

     Computing kpt #:    15  of   144
     total cpu time spent up to now is      874.0 secs

     Computing kpt #:    16  of   144
     total cpu time spent up to now is      917.5 secs

     Computing kpt #:    17  of   144
     total cpu time spent up to now is      961.0 secs

     Computing kpt #:    18  of   144
     total cpu time spent up to now is     1005.3 secs

     Computing kpt #:    19  of   144
     total cpu time spent up to now is     1047.5 secs

     Computing kpt #:    20  of   144
     total cpu time spent up to now is     1090.6 secs

     Computing kpt #:    21  of   144
     total cpu time spent up to now is     1133.9 secs

     Computing kpt #:    22  of   144
     total cpu time spent up to now is     1170.9 secs

     Computing kpt #:    23  of   144
     total cpu time spent up to now is     1205.4 secs

     Computing kpt #:    24  of   144
     total cpu time spent up to now is     1247.5 secs

     Computing kpt #:    25  of   144
     total cpu time spent up to now is     1286.4 secs

     Computing kpt #:    26  of   144
     total cpu time spent up to now is     1319.1 secs

     Computing kpt #:    27  of   144
     total cpu time spent up to now is     1367.4 secs

     Computing kpt #:    28  of   144
     total cpu time spent up to now is     1415.4 secs

     Computing kpt #:    29  of   144
     total cpu time spent up to now is     1462.6 secs

     Computing kpt #:    30  of   144
     total cpu time spent up to now is     1506.6 secs

     Computing kpt #:    31  of   144
     total cpu time spent up to now is     1553.6 secs

     Computing kpt #:    32  of   144
     total cpu time spent up to now is     1601.5 secs

     Computing kpt #:    33  of   144
     total cpu time spent up to now is     1650.7 secs

     Computing kpt #:    34  of   144
     total cpu time spent up to now is     1686.5 secs

     Computing kpt #:    35  of   144
     total cpu time spent up to now is     1725.4 secs

     Computing kpt #:    36  of   144
     total cpu time spent up to now is     1763.2 secs

     Computing kpt #:    37  of   144
     total cpu time spent up to now is     1815.5 secs

     Computing kpt #:    38  of   144
     total cpu time spent up to now is     1861.2 secs

     Computing kpt #:    39  of   144
     total cpu time spent up to now is     1918.8 secs

     Computing kpt #:    40  of   144
     total cpu time spent up to now is     1961.0 secs

     Computing kpt #:    41  of   144
     total cpu time spent up to now is     2004.5 secs

     Computing kpt #:    42  of   144
     total cpu time spent up to now is     2049.7 secs

     Computing kpt #:    43  of   144
     total cpu time spent up to now is     2090.2 secs

     Computing kpt #:    44  of   144
     total cpu time spent up to now is     2140.4 secs

     Computing kpt #:    45  of   144
     total cpu time spent up to now is     2182.6 secs

     Computing kpt #:    46  of   144
     c_bands:  2 eigenvalues not converged
     total cpu time spent up to now is     2241.6 secs

     Computing kpt #:    47  of   144
     total cpu time spent up to now is     2274.1 secs

     Computing kpt #:    48  of   144
     total cpu time spent up to now is     2310.0 secs

     Computing kpt #:    49  of   144
     total cpu time spent up to now is     2360.0 secs

     Computing kpt #:    50  of   144
     total cpu time spent up to now is     2402.7 secs

     Computing kpt #:    51  of   144
     total cpu time spent up to now is     2448.6 secs

     Computing kpt #:    52  of   144
     total cpu time spent up to now is     2492.6 secs

     Computing kpt #:    53  of   144
     total cpu time spent up to now is     2544.5 secs

     Computing kpt #:    54  of   144
     total cpu time spent up to now is     2589.9 secs

     Computing kpt #:    55  of   144
     total cpu time spent up to now is     2633.5 secs

     Computing kpt #:    56  of   144
     total cpu time spent up to now is     2678.2 secs

     Computing kpt #:    57  of   144
     total cpu time spent up to now is     2729.7 secs

     Computing kpt #:    58  of   144
     total cpu time spent up to now is     2774.9 secs

     Computing kpt #:    59  of   144
     total cpu time spent up to now is     2825.5 secs

     Computing kpt #:    60  of   144
     total cpu time spent up to now is     2870.5 secs

     Computing kpt #:    61  of   144
     total cpu time spent up to now is     2917.4 secs

     Computing kpt #:    62  of   144
     total cpu time spent up to now is     2961.6 secs

     Computing kpt #:    63  of   144
     total cpu time spent up to now is     3012.4 secs

     Computing kpt #:    64  of   144
     total cpu time spent up to now is     3055.9 secs

     Computing kpt #:    65  of   144
     total cpu time spent up to now is     3098.8 secs

     Computing kpt #:    66  of   144
     total cpu time spent up to now is     3142.5 secs

     Computing kpt #:    67  of   144
     total cpu time spent up to now is     3185.7 secs

     Computing kpt #:    68  of   144
     total cpu time spent up to now is     3233.5 secs

     Computing kpt #:    69  of   144
     total cpu time spent up to now is     3275.3 secs

     Computing kpt #:    70  of   144
     total cpu time spent up to now is     3325.4 secs

     Computing kpt #:    71  of   144
     total cpu time spent up to now is     3373.5 secs

     Computing kpt #:    72  of   144
     total cpu time spent up to now is     3416.4 secs

     Computing kpt #:    73  of   144
     total cpu time spent up to now is     3459.3 secs

     Computing kpt #:    74  of   144
     total cpu time spent up to now is     3503.6 secs

     Computing kpt #:    75  of   144
     total cpu time spent up to now is     3550.4 secs

     Computing kpt #:    76  of   144
     total cpu time spent up to now is     3591.3 secs

     Computing kpt #:    77  of   144
     total cpu time spent up to now is     3637.2 secs

     Computing kpt #:    78  of   144
     total cpu time spent up to now is     3681.9 secs

     Computing kpt #:    79  of   144
     total cpu time spent up to now is     3724.3 secs

     Computing kpt #:    80  of   144
     total cpu time spent up to now is     3767.6 secs

     Computing kpt #:    81  of   144
     total cpu time spent up to now is     3816.2 secs

     Computing kpt #:    82  of   144
     total cpu time spent up to now is     3859.2 secs

     Computing kpt #:    83  of   144
     total cpu time spent up to now is     3906.8 secs

     Computing kpt #:    84  of   144
     total cpu time spent up to now is     3951.6 secs

     Computing kpt #:    85  of   144
     total cpu time spent up to now is     3998.4 secs

     Computing kpt #:    86  of   144
     total cpu time spent up to now is     4041.4 secs

     Computing kpt #:    87  of   144
     total cpu time spent up to now is     4088.8 secs

     Computing kpt #:    88  of   144
     total cpu time spent up to now is     4137.4 secs

     Computing kpt #:    89  of   144
     total cpu time spent up to now is     4179.7 secs

     Computing kpt #:    90  of   144
     total cpu time spent up to now is     4225.1 secs

     Computing kpt #:    91  of   144
     total cpu time spent up to now is     4267.7 secs

     Computing kpt #:    92  of   144
     total cpu time spent up to now is     4312.1 secs

     Computing kpt #:    93  of   144
     total cpu time spent up to now is     4356.7 secs

     Computing kpt #:    94  of   144
     total cpu time spent up to now is     4399.3 secs

     Computing kpt #:    95  of   144
     total cpu time spent up to now is     4441.9 secs

     Computing kpt #:    96  of   144
     total cpu time spent up to now is     4484.0 secs

     Computing kpt #:    97  of   144
     total cpu time spent up to now is     4543.1 secs

     Computing kpt #:    98  of   144
     total cpu time spent up to now is     4585.8 secs

     Computing kpt #:    99  of   144
     total cpu time spent up to now is     4633.9 secs

     Computing kpt #:   100  of   144
     total cpu time spent up to now is     4676.6 secs

     Computing kpt #:   101  of   144
     total cpu time spent up to now is     4727.5 secs

     Computing kpt #:   102  of   144
     total cpu time spent up to now is     4772.3 secs

     Computing kpt #:   103  of   144
     total cpu time spent up to now is     4820.4 secs

     Computing kpt #:   104  of   144
     total cpu time spent up to now is     4865.4 secs

     Computing kpt #:   105  of   144
     total cpu time spent up to now is     4917.5 secs

     Computing kpt #:   106  of   144
     total cpu time spent up to now is     4962.1 secs

     Computing kpt #:   107  of   144
     total cpu time spent up to now is     5005.9 secs

     Computing kpt #:   108  of   144
     total cpu time spent up to now is     5048.7 secs

     Computing kpt #:   109  of   144
     c_bands:  2 eigenvalues not converged
     total cpu time spent up to now is     5108.1 secs

     Computing kpt #:   110  of   144
     total cpu time spent up to now is     5140.7 secs

     Computing kpt #:   111  of   144
     total cpu time spent up to now is     5176.9 secs

     Computing kpt #:   112  of   144
     total cpu time spent up to now is     5226.8 secs

     Computing kpt #:   113  of   144
     total cpu time spent up to now is     5269.4 secs

     Computing kpt #:   114  of   144
     total cpu time spent up to now is     5318.0 secs

     Computing kpt #:   115  of   144
     total cpu time spent up to now is     5359.1 secs

     Computing kpt #:   116  of   144
     total cpu time spent up to now is     5404.5 secs

     Computing kpt #:   117  of   144
     total cpu time spent up to now is     5449.0 secs

     Computing kpt #:   118  of   144
     total cpu time spent up to now is     5487.7 secs

     Computing kpt #:   119  of   144
     total cpu time spent up to now is     5535.3 secs

     Computing kpt #:   120  of   144
     total cpu time spent up to now is     5578.0 secs

     Computing kpt #:   121  of   144
     total cpu time spent up to now is     5617.2 secs

     Computing kpt #:   122  of   144
     total cpu time spent up to now is     5655.5 secs

     Computing kpt #:   123  of   144
     total cpu time spent up to now is     5690.9 secs

     Computing kpt #:   124  of   144
     total cpu time spent up to now is     5727.1 secs

     Computing kpt #:   125  of   144
     total cpu time spent up to now is     5774.7 secs

     Computing kpt #:   126  of   144
     total cpu time spent up to now is     5821.0 secs

     Computing kpt #:   127  of   144
     total cpu time spent up to now is     5868.6 secs

     Computing kpt #:   128  of   144
     total cpu time spent up to now is     5915.1 secs

     Computing kpt #:   129  of   144
     total cpu time spent up to now is     5963.3 secs

     Computing kpt #:   130  of   144
     total cpu time spent up to now is     6011.4 secs

     Computing kpt #:   131  of   144
     total cpu time spent up to now is     6059.2 secs

     Computing kpt #:   132  of   144
     total cpu time spent up to now is     6091.2 secs

     Computing kpt #:   133  of   144
     total cpu time spent up to now is     6131.9 secs

     Computing kpt #:   134  of   144
     total cpu time spent up to now is     6171.2 secs

     Computing kpt #:   135  of   144
     total cpu time spent up to now is     6209.3 secs

     Computing kpt #:   136  of   144
     total cpu time spent up to now is     6245.4 secs

     Computing kpt #:   137  of   144
     total cpu time spent up to now is     6289.3 secs

     Computing kpt #:   138  of   144
     total cpu time spent up to now is     6331.8 secs

     Computing kpt #:   139  of   144
     total cpu time spent up to now is     6375.0 secs

     Computing kpt #:   140  of   144
     total cpu time spent up to now is     6419.5 secs

     Computing kpt #:   141  of   144
     total cpu time spent up to now is     6464.2 secs

     Computing kpt #:   142  of   144
     total cpu time spent up to now is     6506.1 secs

     Computing kpt #:   143  of   144
     total cpu time spent up to now is     6543.0 secs

     Computing kpt #:   144  of   144
     total cpu time spent up to now is     6579.5 secs

     ethr =  3.85E-13,  avg # of iterations = 81.8

     total cpu time spent up to now is     6579.5 secs

     End of band structure calculation

          k = 0.0000 0.0000 0.0000 (  5789 PWs)   bands (ev):

   -66.7752 -66.7752 -42.5156 -42.5156 -40.0827 -40.0827 -39.9368 -39.9368
   -20.0347 -20.0347 -18.7270 -18.7270 -11.5481 -11.5481  -8.5945  -8.5945
    -8.5307  -8.5307  -7.7076  -7.7076  -7.4884  -7.4884  -7.4036  -7.4036
    -5.9317  -5.9317  -3.2089  -3.2089  -3.1291  -3.1291  -2.9234  -2.9234
    -2.9229  -2.9229  -0.4828  -0.4828  -0.2849  -0.2849   0.3947   0.3947
     1.6198   1.6198   1.6963   1.6963   3.1600   3.1600   4.2697   4.2697
     4.6230   4.6230   5.0016   5.0016   5.0834   5.0834   6.7182   6.7182
     7.0860   7.0860   7.1002   7.1002   8.0045   8.0045   8.3268   8.3268
    10.2949  10.2949  10.4160  10.4160  10.4287  10.4287  10.6196  10.6196

     occupation numbers 
     1.0000   1.0000   1.0000   1.0000   1.0000   1.0000   1.0000   1.0000
     1.0000   1.0000   1.0000   1.0000   1.0000   1.0000   1.0000   1.0000
     1.0000   1.0000   1.0000   1.0000   1.0000   1.0000   1.0000   1.0000
     1.0000   1.0000   0.0000   0.0000   0.0000   0.0000   0.0000   0.0000
     0.0000   0.0000   0.0000   0.0000   0.0000   0.0000   0.0000   0.0000
     0.0000   0.0000   0.0000   0.0000   0.0000   0.0000   0.0000   0.0000
     0.0000   0.0000   0.0000   0.0000   0.0000   0.0000   0.0000   0.0000
     0.0000   0.0000   0.0000   0.0000   0.0000   0.0000   0.0000   0.0000
     0.0000   0.0000   0.0000   0.0000   0.0000   0.0000   0.0000   0.0000

          k = 0.0000 0.0962 0.0000 (  5799 PWs)   bands (ev):

   -66.7727 -66.7727 -42.5224 -42.5224 -40.0856 -40.0856 -39.9534 -39.9534
   -19.9327 -19.9327 -18.6854 -18.6854 -11.4313 -11.4313  -8.7928  -8.7928
    -8.4540  -8.4540  -8.2018  -8.2018  -7.6095  -7.6095  -7.1081  -7.1081
    -5.9849  -5.9849  -3.3101  -3.3101  -3.2003  -3.2003  -3.0480  -3.0480
    -2.9716  -2.9716  -0.2877  -0.2877  -0.1494  -0.1494   0.8260   0.8260
     1.7692   1.7692   1.8258   1.8258   3.6285   3.6285   4.2769   4.2769
     4.7319   4.7319   4.8392   4.8392   5.3697   5.3697   6.3271   6.3271
     6.8005   6.8005   7.1420   7.1420   7.9779   7.9779   8.3979   8.3979
     9.7265   9.7265  10.2246  10.2246  10.4014  10.4014  10.6019  10.6019

     occupation numbers 
     1.0000   1.0000   1.0000   1.0000   1.0000   1.0000   1.0000   1.0000
     1.0000   1.0000   1.0000   1.0000   1.0000   1.0000   1.0000   1.0000
     1.0000   1.0000   1.0000   1.0000   1.0000   1.0000   1.0000   1.0000
     1.0000   1.0000   0.0000   0.0000   0.0000   0.0000   0.0000   0.0000
     0.0000   0.0000   0.0000   0.0000   0.0000   0.0000   0.0000   0.0000
     0.0000   0.0000   0.0000   0.0000   0.0000   0.0000   0.0000   0.0000
     0.0000   0.0000   0.0000   0.0000   0.0000   0.0000   0.0000   0.0000
     0.0000   0.0000   0.0000   0.0000   0.0000   0.0000   0.0000   0.0000
     0.0000   0.0000   0.0000   0.0000   0.0000   0.0000   0.0000   0.0000

          k = 0.0000 0.1925 0.0000 (  5825 PWs)   bands (ev):

   -66.7658 -66.7658 -42.5416 -42.5416 -40.0976 -40.0976 -39.9939 -39.9939
   -19.6427 -19.6427 -18.5676 -18.5676 -11.1380 -11.1380  -9.3125  -9.3125
    -8.8513  -8.8513  -8.1570  -8.1570  -7.9919  -7.9919  -7.0175  -7.0175
    -6.2224  -6.2224  -3.6373  -3.6373  -3.3570  -3.3570  -3.3017  -3.3016
    -2.5751  -2.5751   0.1352   0.1352   0.2442   0.2442   1.7488   1.7489
     2.1991   2.1991   2.3002   2.3002   3.9602   3.9602   4.2180   4.2180
     4.8962   4.8962   5.0224   5.0224   5.6742   5.6742   6.2376   6.2376
     6.5961   6.5961   7.3620   7.3620   7.9939   7.9939   8.1762   8.1762
     9.2568   9.2568   9.3268   9.3268  10.0803  10.0803  11.0287  11.0287

     occupation numbers 
     1.0000   1.0000   1.0000   1.0000   1.0000   1.0000   1.0000   1.0000
     1.0000   1.0000   1.0000   1.0000   1.0000   1.0000   1.0000   1.0000
     1.0000   1.0000   1.0000   1.0000   1.0000   1.0000   1.0000   1.0000
     1.0000   1.0000   0.0000   0.0000   0.0000   0.0000   0.0000   0.0000
     0.0000   0.0000   0.0000   0.0000   0.0000   0.0000   0.0000   0.0000
     0.0000   0.0000   0.0000   0.0000   0.0000   0.0000   0.0000   0.0000
     0.0000   0.0000   0.0000   0.0000   0.0000   0.0000   0.0000   0.0000
     0.0000   0.0000   0.0000   0.0000   0.0000   0.0000   0.0000   0.0000
     0.0000   0.0000   0.0000   0.0000   0.0000   0.0000   0.0000   0.0000

          k = 0.0000 0.2887 0.0000 (  5830 PWs)   bands (ev):

   -66.7565 -66.7565 -42.5688 -42.5688 -40.1302 -40.1302 -40.0304 -40.0304
   -19.2141 -19.2141 -18.3946 -18.3946 -10.9303 -10.9303  -9.7541  -9.7541
    -9.5066  -9.5066  -8.4277  -8.4277  -7.7375  -7.7375  -7.2585  -7.2585
    -6.6539  -6.6539  -3.7653  -3.7653  -3.5762  -3.5762  -3.0231  -3.0231
    -2.1522  -2.1522   0.7050   0.7050   0.8582   0.8582   2.3237   2.3237
     2.7087   2.7087   2.9767   2.9767   3.5138   3.5138   3.6701   3.6701
     5.3131   5.3131   5.4817   5.4818   6.3499   6.3499   6.3981   6.3981
     7.1117   7.1117   7.8701   7.8701   7.8899   7.8899   7.9949   7.9949
     8.6050   8.6050   9.7650   9.7650  10.1418  10.1418  10.9912  10.9912

     occupation numbers 
     1.0000   1.0000   1.0000   1.0000   1.0000   1.0000   1.0000   1.0000
     1.0000   1.0000   1.0000   1.0000   1.0000   1.0000   1.0000   1.0000
     1.0000   1.0000   1.0000   1.0000   1.0000   1.0000   1.0000   1.0000
     1.0000   1.0000   0.0000   0.0000   0.0000   0.0000   0.0000   0.0000
     0.0000   0.0000   0.0000   0.0000   0.0000   0.0000   0.0000   0.0000
     0.0000   0.0000   0.0000   0.0000   0.0000   0.0000   0.0000   0.0000
     0.0000   0.0000   0.0000   0.0000   0.0000   0.0000   0.0000   0.0000
     0.0000   0.0000   0.0000   0.0000   0.0000   0.0000   0.0000   0.0000
     0.0000   0.0000   0.0000   0.0000   0.0000   0.0000   0.0000   0.0000

          k = 0.0000 0.3849 0.0000 (  5840 PWs)   bands (ev):

   -66.7471 -66.7471 -42.5973 -42.5973 -40.1810 -40.1810 -40.0460 -40.0460
   -18.7342 -18.7341 -18.2047 -18.2047 -11.1767 -11.1767 -10.1146 -10.1146
    -9.8362  -9.8362  -8.7918  -8.7918  -7.5645  -7.5645  -7.3121  -7.3121
    -6.8987  -6.8987  -3.7412  -3.7412  -3.5863  -3.5863  -2.5324  -2.5324
    -1.8424  -1.8424   1.3118   1.3118   1.5672   1.5672   1.9937   1.9937
     2.6258   2.6258   3.0016   3.0016   3.7269   3.7269   4.1358   4.1358
     5.3588   5.3588   5.7574   5.7574   6.5467   6.5467   6.7831   6.7831
     6.8717   6.8717   8.0677   8.0677   8.6484   8.6484   8.6697   8.6697
     9.0101   9.0101   9.3206   9.3206   9.5942   9.5942  10.5033  10.5033

     occupation numbers 
     1.0000   1.0000   1.0000   1.0000   1.0000   1.0000   1.0000   1.0000
     1.0000   1.0000   1.0000   1.0000   1.0000   1.0000   1.0000   1.0000
     1.0000   1.0000   1.0000   1.0000   1.0000   1.0000   1.0000   1.0000
     1.0000   1.0000   0.0000   0.0000   0.0000   0.0000   0.0000   0.0000
     0.0000   0.0000   0.0000   0.0000   0.0000   0.0000   0.0000   0.0000
     0.0000   0.0000   0.0000   0.0000   0.0000   0.0000   0.0000   0.0000
     0.0000   0.0000   0.0000   0.0000   0.0000   0.0000   0.0000   0.0000
     0.0000   0.0000   0.0000   0.0000   0.0000   0.0000   0.0000   0.0000
     0.0000   0.0000   0.0000   0.0000   0.0000   0.0000   0.0000   0.0000

          k = 0.0000 0.4811 0.0000 (  5864 PWs)   bands (ev):

   -66.7402 -66.7402 -42.6190 -42.6190 -40.2229 -40.2229 -40.0509 -40.0509
   -18.3359 -18.3359 -18.0523 -18.0523 -11.5475 -11.5475 -10.5555 -10.5555
    -9.9304  -9.9304  -9.0282  -9.0282  -7.7499  -7.7499  -7.0253  -7.0253
    -6.7265  -6.7265  -3.7427  -3.7427  -3.3330  -3.3330  -2.1667  -2.1667
    -1.6720  -1.6720   0.7771   0.7771   1.9437   1.9437   2.0429   2.0429
     2.8284   2.8284   3.5773   3.5773   4.2088   4.2089   4.5624   4.5624
     5.3000   5.3000   5.7117   5.7117   5.7688   5.7688   6.6791   6.6791
     6.8438   6.8438   7.8927   7.8927   7.9620   7.9620   8.6011   8.6011
     9.0831   9.0831   9.4287   9.4287   9.9425   9.9425  10.5747  10.5747

     occupation numbers 
     1.0000   1.0000   1.0000   1.0000   1.0000   1.0000   1.0000   1.0000
     1.0000   1.0000   1.0000   1.0000   1.0000   1.0000   1.0000   1.0000
     1.0000   1.0000   1.0000   1.0000   1.0000   1.0000   1.0000   1.0000
     1.0000   1.0000   0.0000   0.0000   0.0000   0.0000   0.0000   0.0000
     0.0000   0.0000   0.0000   0.0000   0.0000   0.0000   0.0000   0.0000
     0.0000   0.0000   0.0000   0.0000   0.0000   0.0000   0.0000   0.0000
     0.0000   0.0000   0.0000   0.0000   0.0000   0.0000   0.0000   0.0000
     0.0000   0.0000   0.0000   0.0000   0.0000   0.0000   0.0000   0.0000
     0.0000   0.0000   0.0000   0.0000   0.0000   0.0000   0.0000   0.0000

          k = 0.0000 0.5774 0.0000 (  5868 PWs)   bands (ev):

   -66.7377 -66.7377 -42.6271 -42.6271 -40.2386 -40.2386 -40.0520 -40.0520
   -18.1765 -18.1765 -17.9933 -17.9933 -11.7050 -11.7050 -10.7187 -10.7187
   -10.0050 -10.0050  -9.1096  -9.1096  -7.8102  -7.8102  -6.9242  -6.9242
    -6.5615  -6.5615  -3.7159  -3.7159  -3.1911  -3.1911  -2.0470  -2.0470
    -1.6195  -1.6195   0.2768   0.2768   2.0447   2.0447   2.3344   2.3344
     3.0655   3.0655   3.8299   3.8299   4.3643   4.3643   4.9074   4.9074
     5.4093   5.4093   5.4688   5.4688   5.5235   5.5235   6.3857   6.3857
     6.6774   6.6774   7.1496   7.1496   7.5398   7.5398   9.0820   9.0820
     9.1022   9.1022   9.7061   9.7061   9.7649   9.7649  10.4469  10.4469

     occupation numbers 
     1.0000   1.0000   1.0000   1.0000   1.0000   1.0000   1.0000   1.0000
     1.0000   1.0000   1.0000   1.0000   1.0000   1.0000   1.0000   1.0000
     1.0000   1.0000   1.0000   1.0000   1.0000   1.0000   1.0000   1.0000
     1.0000   1.0000   0.0000   0.0000   0.0000   0.0000   0.0000   0.0000
     0.0000   0.0000   0.0000   0.0000   0.0000   0.0000   0.0000   0.0000
     0.0000   0.0000   0.0000   0.0000   0.0000   0.0000   0.0000   0.0000
     0.0000   0.0000   0.0000   0.0000   0.0000   0.0000   0.0000   0.0000
     0.0000   0.0000   0.0000   0.0000   0.0000   0.0000   0.0000   0.0000
     0.0000   0.0000   0.0000   0.0000   0.0000   0.0000   0.0000   0.0000

          k = 0.0000 0.6736 0.0000 (  5864 PWs)   bands (ev):

   -66.7402 -66.7402 -42.6190 -42.6190 -40.2229 -40.2229 -40.0509 -40.0509
   -18.3359 -18.3359 -18.0523 -18.0523 -11.5475 -11.5475 -10.5555 -10.5555
    -9.9304  -9.9304  -9.0282  -9.0282  -7.7499  -7.7499  -7.0253  -7.0253
    -6.7265  -6.7265  -3.7427  -3.7427  -3.3330  -3.3330  -2.1667  -2.1667
    -1.6720  -1.6720   0.7771   0.7771   1.9437   1.9437   2.0429   2.0429
     2.8284   2.8284   3.5773   3.5773   4.2088   4.2089   4.5624   4.5624
     5.3000   5.3000   5.7117   5.7117   5.7688   5.7688   6.6791   6.6791
     6.8438   6.8438   7.8927   7.8927   7.9620   7.9620   8.6011   8.6011
     9.0831   9.0831   9.4287   9.4287   9.9425   9.9425  10.5747  10.5747

     occupation numbers 
     1.0000   1.0000   1.0000   1.0000   1.0000   1.0000   1.0000   1.0000
     1.0000   1.0000   1.0000   1.0000   1.0000   1.0000   1.0000   1.0000
     1.0000   1.0000   1.0000   1.0000   1.0000   1.0000   1.0000   1.0000
     1.0000   1.0000   0.0000   0.0000   0.0000   0.0000   0.0000   0.0000
     0.0000   0.0000   0.0000   0.0000   0.0000   0.0000   0.0000   0.0000
     0.0000   0.0000   0.0000   0.0000   0.0000   0.0000   0.0000   0.0000
     0.0000   0.0000   0.0000   0.0000   0.0000   0.0000   0.0000   0.0000
     0.0000   0.0000   0.0000   0.0000   0.0000   0.0000   0.0000   0.0000
     0.0000   0.0000   0.0000   0.0000   0.0000   0.0000   0.0000   0.0000

          k = 0.0000 0.7698 0.0000 (  5840 PWs)   bands (ev):

   -66.7471 -66.7471 -42.5973 -42.5973 -40.1810 -40.1810 -40.0460 -40.0460
   -18.7342 -18.7341 -18.2047 -18.2047 -11.1767 -11.1767 -10.1146 -10.1146
    -9.8362  -9.8362  -8.7918  -8.7918  -7.5645  -7.5645  -7.3121  -7.3121
    -6.8987  -6.8987  -3.7412  -3.7412  -3.5863  -3.5863  -2.5324  -2.5324
    -1.8424  -1.8424   1.3118   1.3118   1.5672   1.5672   1.9937   1.9937
     2.6258   2.6258   3.0016   3.0016   3.7269   3.7269   4.1358   4.1358
     5.3588   5.3588   5.7574   5.7574   6.5467   6.5467   6.7831   6.7831
     6.8717   6.8717   8.0677   8.0677   8.6484   8.6484   8.6697   8.6697
     9.0101   9.0101   9.3206   9.3206   9.5942   9.5942  10.5033  10.5033

     occupation numbers 
     1.0000   1.0000   1.0000   1.0000   1.0000   1.0000   1.0000   1.0000
     1.0000   1.0000   1.0000   1.0000   1.0000   1.0000   1.0000   1.0000
     1.0000   1.0000   1.0000   1.0000   1.0000   1.0000   1.0000   1.0000
     1.0000   1.0000   0.0000   0.0000   0.0000   0.0000   0.0000   0.0000
     0.0000   0.0000   0.0000   0.0000   0.0000   0.0000   0.0000   0.0000
     0.0000   0.0000   0.0000   0.0000   0.0000   0.0000   0.0000   0.0000
     0.0000   0.0000   0.0000   0.0000   0.0000   0.0000   0.0000   0.0000
     0.0000   0.0000   0.0000   0.0000   0.0000   0.0000   0.0000   0.0000
     0.0000   0.0000   0.0000   0.0000   0.0000   0.0000   0.0000   0.0000

          k = 0.0000 0.8660 0.0000 (  5830 PWs)   bands (ev):

   -66.7565 -66.7565 -42.5688 -42.5688 -40.1302 -40.1302 -40.0304 -40.0304
   -19.2141 -19.2141 -18.3946 -18.3946 -10.9303 -10.9303  -9.7541  -9.7541
    -9.5066  -9.5066  -8.4277  -8.4277  -7.7375  -7.7375  -7.2585  -7.2585
    -6.6539  -6.6539  -3.7653  -3.7653  -3.5762  -3.5762  -3.0231  -3.0231
    -2.1522  -2.1522   0.7050   0.7050   0.8582   0.8582   2.3237   2.3237
     2.7087   2.7087   2.9767   2.9767   3.5138   3.5138   3.6701   3.6701
     5.3131   5.3131   5.4817   5.4818   6.3499   6.3499   6.3981   6.3981
     7.1117   7.1117   7.8701   7.8701   7.8899   7.8899   7.9949   7.9949
     8.6050   8.6050   9.7650   9.7650  10.1418  10.1418  10.9912  10.9912

     occupation numbers 
     1.0000   1.0000   1.0000   1.0000   1.0000   1.0000   1.0000   1.0000
     1.0000   1.0000   1.0000   1.0000   1.0000   1.0000   1.0000   1.0000
     1.0000   1.0000   1.0000   1.0000   1.0000   1.0000   1.0000   1.0000
     1.0000   1.0000   0.0000   0.0000   0.0000   0.0000   0.0000   0.0000
     0.0000   0.0000   0.0000   0.0000   0.0000   0.0000   0.0000   0.0000
     0.0000   0.0000   0.0000   0.0000   0.0000   0.0000   0.0000   0.0000
     0.0000   0.0000   0.0000   0.0000   0.0000   0.0000   0.0000   0.0000
     0.0000   0.0000   0.0000   0.0000   0.0000   0.0000   0.0000   0.0000
     0.0000   0.0000   0.0000   0.0000   0.0000   0.0000   0.0000   0.0000

          k = 0.0000 0.9623 0.0000 (  5825 PWs)   bands (ev):

   -66.7658 -66.7658 -42.5416 -42.5416 -40.0976 -40.0976 -39.9939 -39.9939
   -19.6427 -19.6427 -18.5676 -18.5676 -11.1380 -11.1380  -9.3125  -9.3125
    -8.8513  -8.8513  -8.1570  -8.1570  -7.9919  -7.9919  -7.0175  -7.0175
    -6.2224  -6.2224  -3.6373  -3.6373  -3.3570  -3.3570  -3.3017  -3.3016
    -2.5751  -2.5751   0.1352   0.1352   0.2442   0.2442   1.7488   1.7489
     2.1991   2.1991   2.3002   2.3002   3.9602   3.9602   4.2180   4.2180
     4.8962   4.8962   5.0224   5.0224   5.6742   5.6742   6.2376   6.2376
     6.5961   6.5961   7.3620   7.3620   7.9939   7.9939   8.1762   8.1762
     9.2568   9.2568   9.3268   9.3268  10.0803  10.0803  11.0287  11.0287

     occupation numbers 
     1.0000   1.0000   1.0000   1.0000   1.0000   1.0000   1.0000   1.0000
     1.0000   1.0000   1.0000   1.0000   1.0000   1.0000   1.0000   1.0000
     1.0000   1.0000   1.0000   1.0000   1.0000   1.0000   1.0000   1.0000
     1.0000   1.0000   0.0000   0.0000   0.0000   0.0000   0.0000   0.0000
     0.0000   0.0000   0.0000   0.0000   0.0000   0.0000   0.0000   0.0000
     0.0000   0.0000   0.0000   0.0000   0.0000   0.0000   0.0000   0.0000
     0.0000   0.0000   0.0000   0.0000   0.0000   0.0000   0.0000   0.0000
     0.0000   0.0000   0.0000   0.0000   0.0000   0.0000   0.0000   0.0000
     0.0000   0.0000   0.0000   0.0000   0.0000   0.0000   0.0000   0.0000

          k = 0.0000 1.0585 0.0000 (  5799 PWs)   bands (ev):

   -66.7727 -66.7727 -42.5224 -42.5224 -40.0856 -40.0856 -39.9534 -39.9534
   -19.9327 -19.9327 -18.6854 -18.6854 -11.4313 -11.4313  -8.7928  -8.7928
    -8.4540  -8.4540  -8.2018  -8.2018  -7.6095  -7.6095  -7.1081  -7.1081
    -5.9849  -5.9849  -3.3101  -3.3101  -3.2003  -3.2003  -3.0480  -3.0480
    -2.9716  -2.9716  -0.2877  -0.2877  -0.1494  -0.1494   0.8260   0.8260
     1.7692   1.7692   1.8258   1.8258   3.6285   3.6285   4.2769   4.2769
     4.7319   4.7319   4.8392   4.8392   5.3697   5.3697   6.3271   6.3271
     6.8005   6.8005   7.1420   7.1420   7.9779   7.9779   8.3979   8.3979
     9.7265   9.7265  10.2246  10.2246  10.4014  10.4014  10.6019  10.6019

     occupation numbers 
     1.0000   1.0000   1.0000   1.0000   1.0000   1.0000   1.0000   1.0000
     1.0000   1.0000   1.0000   1.0000   1.0000   1.0000   1.0000   1.0000
     1.0000   1.0000   1.0000   1.0000   1.0000   1.0000   1.0000   1.0000
     1.0000   1.0000   0.0000   0.0000   0.0000   0.0000   0.0000   0.0000
     0.0000   0.0000   0.0000   0.0000   0.0000   0.0000   0.0000   0.0000
     0.0000   0.0000   0.0000   0.0000   0.0000   0.0000   0.0000   0.0000
     0.0000   0.0000   0.0000   0.0000   0.0000   0.0000   0.0000   0.0000
     0.0000   0.0000   0.0000   0.0000   0.0000   0.0000   0.0000   0.0000
     0.0000   0.0000   0.0000   0.0000   0.0000   0.0000   0.0000   0.0000

          k = 0.0833 0.0481 0.0000 (  5799 PWs)   bands (ev):

   -66.7727 -66.7727 -42.5224 -42.5224 -40.0856 -40.0856 -39.9534 -39.9534
   -19.9327 -19.9327 -18.6854 -18.6854 -11.4313 -11.4313  -8.7928  -8.7928
    -8.4540  -8.4540  -8.2018  -8.2018  -7.6095  -7.6095  -7.1081  -7.1081
    -5.9849  -5.9849  -3.3101  -3.3101  -3.2003  -3.2003  -3.0480  -3.0480
    -2.9716  -2.9716  -0.2877  -0.2877  -0.1494  -0.1494   0.8260   0.8260
     1.7692   1.7692   1.8258   1.8258   3.6285   3.6285   4.2769   4.2769
     4.7319   4.7319   4.8392   4.8392   5.3697   5.3697   6.3271   6.3271
     6.8005   6.8005   7.1420   7.1420   7.9779   7.9779   8.3979   8.3979
     9.7265   9.7265  10.2246  10.2246  10.4014  10.4014  10.6019  10.6019

     occupation numbers 
     1.0000   1.0000   1.0000   1.0000   1.0000   1.0000   1.0000   1.0000
     1.0000   1.0000   1.0000   1.0000   1.0000   1.0000   1.0000   1.0000
     1.0000   1.0000   1.0000   1.0000   1.0000   1.0000   1.0000   1.0000
     1.0000   1.0000   0.0000   0.0000   0.0000   0.0000   0.0000   0.0000
     0.0000   0.0000   0.0000   0.0000   0.0000   0.0000   0.0000   0.0000
     0.0000   0.0000   0.0000   0.0000   0.0000   0.0000   0.0000   0.0000
     0.0000   0.0000   0.0000   0.0000   0.0000   0.0000   0.0000   0.0000
     0.0000   0.0000   0.0000   0.0000   0.0000   0.0000   0.0000   0.0000
     0.0000   0.0000   0.0000   0.0000   0.0000   0.0000   0.0000   0.0000

          k = 0.0833 0.1443 0.0000 (  5818 PWs)   bands (ev):

   -66.7680 -66.7680 -42.5360 -42.5349 -40.0931 -40.0923 -39.9836 -39.9811
   -19.7376 -19.7355 -18.6057 -18.6056 -11.2239 -11.2212  -9.1642  -9.1526
    -8.6354  -8.6347  -8.2710  -8.2454  -7.9894  -7.9845  -6.9294  -6.9051
    -6.1337  -6.1284  -3.5480  -3.5359  -3.4650  -3.4112  -3.2546  -3.2277
    -2.6754  -2.6263   0.0113   0.0132   0.1157   0.1158   1.5387   1.5425
     2.0786   2.0786   2.0960   2.0972   4.1099   4.1224   4.3060   4.3068
     4.8136   4.8374   4.8759   4.8761   5.6148   5.6235   5.7926   5.8353
     6.8057   6.8166   7.1007   7.1043   8.0157   8.0195   8.4947   8.5013
     9.2561   9.3398   9.4032   9.4076  10.3602  10.4197  10.6670  10.6834

     occupation numbers 
     1.0000   1.0000   1.0000   1.0000   1.0000   1.0000   1.0000   1.0000
     1.0000   1.0000   1.0000   1.0000   1.0000   1.0000   1.0000   1.0000
     1.0000   1.0000   1.0000   1.0000   1.0000   1.0000   1.0000   1.0000
     1.0000   1.0000   0.0000   0.0000   0.0000   0.0000   0.0000   0.0000
     0.0000   0.0000   0.0000   0.0000   0.0000   0.0000   0.0000   0.0000
     0.0000   0.0000   0.0000   0.0000   0.0000   0.0000   0.0000   0.0000
     0.0000   0.0000   0.0000   0.0000   0.0000   0.0000   0.0000   0.0000
     0.0000   0.0000   0.0000   0.0000   0.0000   0.0000   0.0000   0.0000
     0.0000   0.0000   0.0000   0.0000   0.0000   0.0000   0.0000   0.0000

          k = 0.0833 0.2406 0.0000 (  5839 PWs)   bands (ev):

   -66.7599 -66.7599 -42.5602 -42.5570 -40.1138 -40.1131 -40.0250 -40.0197
   -19.3794 -19.3732 -18.4594 -18.4590 -10.9456 -10.9358  -9.6267  -9.6228
    -9.1831  -9.1724  -8.5330  -8.5269  -7.9667  -7.9285  -6.9598  -6.9317
    -6.4916  -6.4663  -3.8439  -3.8140  -3.4800  -3.4683  -3.3836  -3.3176
    -2.2112  -2.1645   0.5114   0.5153   0.6245   0.6249   2.2810   2.2842
     2.5514   2.5515   2.9215   2.9219   3.7382   3.7648   4.0698   4.0703
     5.0558   5.0778   5.2483   5.2493   5.9165   5.9282   5.9834   6.0307
     6.9952   6.9977   7.1806   7.1905   7.6854   7.7057   8.6193   8.6417
     8.6642   8.6702   9.5656   9.5673  10.3960  10.4508  10.9806  10.9992

     occupation numbers 
     1.0000   1.0000   1.0000   1.0000   1.0000   1.0000   1.0000   1.0000
     1.0000   1.0000   1.0000   1.0000   1.0000   1.0000   1.0000   1.0000
     1.0000   1.0000   1.0000   1.0000   1.0000   1.0000   1.0000   1.0000
     1.0000   1.0000   0.0000   0.0000   0.0000   0.0000   0.0000   0.0000
     0.0000   0.0000   0.0000   0.0000   0.0000   0.0000   0.0000   0.0000
     0.0000   0.0000   0.0000   0.0000   0.0000   0.0000   0.0000   0.0000
     0.0000   0.0000   0.0000   0.0000   0.0000   0.0000   0.0000   0.0000
     0.0000   0.0000   0.0000   0.0000   0.0000   0.0000   0.0000   0.0000
     0.0000   0.0000   0.0000   0.0000   0.0000   0.0000   0.0000   0.0000

          k = 0.0833 0.3368 0.0000 (  5838 PWs)   bands (ev):

   -66.7505 -66.7505 -42.5892 -42.5837 -40.1579 -40.1542 -40.0497 -40.0454
   -18.9245 -18.9126 -18.2751 -18.2743 -10.9762 -10.9633  -9.8406  -9.8300
    -9.7906  -9.7843  -8.8949  -8.8846  -7.7291  -7.6659  -7.2471  -7.2247
    -6.8156  -6.7518  -3.9255  -3.8604  -3.5330  -3.5035  -2.9823  -2.9332
    -1.8423  -1.8052   1.1432   1.1520   1.3188   1.3193   2.5740   2.5818
     2.9417   2.9467   2.9691   2.9743   3.5855   3.5892   3.9919   3.9945
     5.4963   5.4996   5.5973   5.6132   6.0988   6.1502   6.6159   6.6283
     6.6366   6.6624   7.3860   7.3905   7.8734   7.9208   9.1326   9.1331
     9.1982   9.2092   9.7416   9.7430  10.0249  10.0296  10.4018  10.4019

     occupation numbers 
     1.0000   1.0000   1.0000   1.0000   1.0000   1.0000   1.0000   1.0000
     1.0000   1.0000   1.0000   1.0000   1.0000   1.0000   1.0000   1.0000
     1.0000   1.0000   1.0000   1.0000   1.0000   1.0000   1.0000   1.0000
     1.0000   1.0000   0.0000   0.0000   0.0000   0.0000   0.0000   0.0000
     0.0000   0.0000   0.0000   0.0000   0.0000   0.0000   0.0000   0.0000
     0.0000   0.0000   0.0000   0.0000   0.0000   0.0000   0.0000   0.0000
     0.0000   0.0000   0.0000   0.0000   0.0000   0.0000   0.0000   0.0000
     0.0000   0.0000   0.0000   0.0000   0.0000   0.0000   0.0000   0.0000
     0.0000   0.0000   0.0000   0.0000   0.0000   0.0000   0.0000   0.0000

          k = 0.0833 0.4330 0.0000 (  5851 PWs)   bands (ev):

   -66.7424 -66.7424 -42.6153 -42.6076 -40.2075 -40.1987 -40.0583 -40.0561
   -18.4807 -18.4624 -18.0989 -18.0976 -11.3103 -11.3101 -10.4190 -10.4113
    -9.8233  -9.8233  -9.0616  -9.0518  -7.6289  -7.5820  -7.5328  -7.5209
    -6.7302  -6.6410  -3.7883  -3.7533  -3.4153  -3.4039  -2.4914  -2.4560
    -1.6866  -1.6616   1.3467   1.3475   2.0094   2.0138   2.0219   2.0221
     2.8793   2.8856   3.4484   3.4541   4.1161   4.1197   4.5138   4.5197
     5.1919   5.2681   5.3348   5.3414   6.0105   6.0420   7.0513   7.0514
     7.0743   7.0827   8.1205   8.1237   8.1445   8.1540   8.5279   8.5311
     8.6463   8.6663   9.6691   9.6707   9.8760   9.8770   9.9637   9.9663

     occupation numbers 
     1.0000   1.0000   1.0000   1.0000   1.0000   1.0000   1.0000   1.0000
     1.0000   1.0000   1.0000   1.0000   1.0000   1.0000   1.0000   1.0000
     1.0000   1.0000   1.0000   1.0000   1.0000   1.0000   1.0000   1.0000
     1.0000   1.0000   0.0000   0.0000   0.0000   0.0000   0.0000   0.0000
     0.0000   0.0000   0.0000   0.0000   0.0000   0.0000   0.0000   0.0000
     0.0000   0.0000   0.0000   0.0000   0.0000   0.0000   0.0000   0.0000
     0.0000   0.0000   0.0000   0.0000   0.0000   0.0000   0.0000   0.0000
     0.0000   0.0000   0.0000   0.0000   0.0000   0.0000   0.0000   0.0000
     0.0000   0.0000   0.0000   0.0000   0.0000   0.0000   0.0000   0.0000

          k = 0.0833 0.5292 0.0000 (  5866 PWs)   bands (ev):

   -66.7377 -66.7377 -42.6308 -42.6218 -40.2375 -40.2261 -40.0609 -40.0597
   -18.1949 -18.1719 -17.9885 -17.9871 -11.5728 -11.5612 -10.7588 -10.7532
    -9.9507  -9.9432  -9.1178  -9.1082  -7.7723  -7.7687  -7.4683  -7.3992
    -6.4948  -6.3949  -3.7178  -3.6772  -3.2421  -3.1459  -2.0936  -2.0628
    -1.7713  -1.7508   0.5189   0.5360   2.4446   2.4448   2.5367   2.5469
     3.1041   3.1074   3.9513   3.9644   4.3904   4.3913   4.5264   4.5765
     5.0903   5.0943   5.5483   5.5486   5.9144   5.9224   6.5716   6.5807
     6.5942   6.6045   7.6848   7.6939   7.7284   7.7285   8.9010   8.9108
     8.9186   8.9241   9.2257   9.2347   9.8542   9.8692  10.3425  10.3498

     occupation numbers 
     1.0000   1.0000   1.0000   1.0000   1.0000   1.0000   1.0000   1.0000
     1.0000   1.0000   1.0000   1.0000   1.0000   1.0000   1.0000   1.0000
     1.0000   1.0000   1.0000   1.0000   1.0000   1.0000   1.0000   1.0000
     1.0000   1.0000   0.0000   0.0000   0.0000   0.0000   0.0000   0.0000
     0.0000   0.0000   0.0000   0.0000   0.0000   0.0000   0.0000   0.0000
     0.0000   0.0000   0.0000   0.0000   0.0000   0.0000   0.0000   0.0000
     0.0000   0.0000   0.0000   0.0000   0.0000   0.0000   0.0000   0.0000
     0.0000   0.0000   0.0000   0.0000   0.0000   0.0000   0.0000   0.0000
     0.0000   0.0000   0.0000   0.0000   0.0000   0.0000   0.0000   0.0000

          k = 0.0833 0.6255 0.0000 (  5866 PWs)   bands (ev):

   -66.7377 -66.7377 -42.6308 -42.6218 -40.2375 -40.2261 -40.0609 -40.0597
   -18.1949 -18.1719 -17.9885 -17.9871 -11.5728 -11.5612 -10.7588 -10.7532
    -9.9507  -9.9432  -9.1178  -9.1082  -7.7723  -7.7687  -7.4683  -7.3992
    -6.4948  -6.3949  -3.7178  -3.6772  -3.2421  -3.1459  -2.0936  -2.0628
    -1.7713  -1.7508   0.5189   0.5360   2.4446   2.4448   2.5367   2.5469
     3.1041   3.1074   3.9513   3.9644   4.3904   4.3913   4.5264   4.5765
     5.0903   5.0943   5.5483   5.5486   5.9144   5.9224   6.5716   6.5807
     6.5942   6.6045   7.6848   7.6939   7.7284   7.7285   8.9010   8.9108
     8.9186   8.9241   9.2257   9.2347   9.8542   9.8692  10.3425  10.3498

     occupation numbers 
     1.0000   1.0000   1.0000   1.0000   1.0000   1.0000   1.0000   1.0000
     1.0000   1.0000   1.0000   1.0000   1.0000   1.0000   1.0000   1.0000
     1.0000   1.0000   1.0000   1.0000   1.0000   1.0000   1.0000   1.0000
     1.0000   1.0000   0.0000   0.0000   0.0000   0.0000   0.0000   0.0000
     0.0000   0.0000   0.0000   0.0000   0.0000   0.0000   0.0000   0.0000
     0.0000   0.0000   0.0000   0.0000   0.0000   0.0000   0.0000   0.0000
     0.0000   0.0000   0.0000   0.0000   0.0000   0.0000   0.0000   0.0000
     0.0000   0.0000   0.0000   0.0000   0.0000   0.0000   0.0000   0.0000
     0.0000   0.0000   0.0000   0.0000   0.0000   0.0000   0.0000   0.0000

          k = 0.0833 0.7217 0.0000 (  5851 PWs)   bands (ev):

   -66.7424 -66.7424 -42.6153 -42.6076 -40.2075 -40.1987 -40.0583 -40.0561
   -18.4807 -18.4624 -18.0989 -18.0976 -11.3103 -11.3101 -10.4190 -10.4113
    -9.8233  -9.8233  -9.0616  -9.0518  -7.6289  -7.5820  -7.5328  -7.5209
    -6.7302  -6.6410  -3.7883  -3.7533  -3.4153  -3.4039  -2.4914  -2.4560
    -1.6866  -1.6616   1.3467   1.3475   2.0094   2.0138   2.0219   2.0221
     2.8793   2.8856   3.4484   3.4541   4.1161   4.1197   4.5138   4.5197
     5.1919   5.2681   5.3348   5.3414   6.0105   6.0420   7.0513   7.0514
     7.0743   7.0827   8.1205   8.1237   8.1445   8.1540   8.5279   8.5311
     8.6463   8.6663   9.6691   9.6707   9.8760   9.8770   9.9637   9.9663

     occupation numbers 
     1.0000   1.0000   1.0000   1.0000   1.0000   1.0000   1.0000   1.0000
     1.0000   1.0000   1.0000   1.0000   1.0000   1.0000   1.0000   1.0000
     1.0000   1.0000   1.0000   1.0000   1.0000   1.0000   1.0000   1.0000
     1.0000   1.0000   0.0000   0.0000   0.0000   0.0000   0.0000   0.0000
     0.0000   0.0000   0.0000   0.0000   0.0000   0.0000   0.0000   0.0000
     0.0000   0.0000   0.0000   0.0000   0.0000   0.0000   0.0000   0.0000
     0.0000   0.0000   0.0000   0.0000   0.0000   0.0000   0.0000   0.0000
     0.0000   0.0000   0.0000   0.0000   0.0000   0.0000   0.0000   0.0000
     0.0000   0.0000   0.0000   0.0000   0.0000   0.0000   0.0000   0.0000

          k = 0.0833 0.8179 0.0000 (  5838 PWs)   bands (ev):

   -66.7505 -66.7505 -42.5892 -42.5837 -40.1579 -40.1542 -40.0497 -40.0454
   -18.9245 -18.9126 -18.2751 -18.2743 -10.9762 -10.9633  -9.8406  -9.8300
    -9.7906  -9.7843  -8.8949  -8.8846  -7.7291  -7.6659  -7.2471  -7.2247
    -6.8156  -6.7518  -3.9255  -3.8604  -3.5330  -3.5035  -2.9823  -2.9332
    -1.8423  -1.8052   1.1432   1.1520   1.3188   1.3193   2.5740   2.5818
     2.9417   2.9467   2.9691   2.9743   3.5855   3.5892   3.9919   3.9945
     5.4963   5.4996   5.5973   5.6132   6.0988   6.1502   6.6159   6.6283
     6.6366   6.6624   7.3860   7.3905   7.8734   7.9208   9.1326   9.1331
     9.1982   9.2092   9.7416   9.7430  10.0249  10.0296  10.4018  10.4019

     occupation numbers 
     1.0000   1.0000   1.0000   1.0000   1.0000   1.0000   1.0000   1.0000
     1.0000   1.0000   1.0000   1.0000   1.0000   1.0000   1.0000   1.0000
     1.0000   1.0000   1.0000   1.0000   1.0000   1.0000   1.0000   1.0000
     1.0000   1.0000   0.0000   0.0000   0.0000   0.0000   0.0000   0.0000
     0.0000   0.0000   0.0000   0.0000   0.0000   0.0000   0.0000   0.0000
     0.0000   0.0000   0.0000   0.0000   0.0000   0.0000   0.0000   0.0000
     0.0000   0.0000   0.0000   0.0000   0.0000   0.0000   0.0000   0.0000
     0.0000   0.0000   0.0000   0.0000   0.0000   0.0000   0.0000   0.0000
     0.0000   0.0000   0.0000   0.0000   0.0000   0.0000   0.0000   0.0000

          k = 0.0833 0.9141 0.0000 (  5839 PWs)   bands (ev):

   -66.7599 -66.7599 -42.5602 -42.5570 -40.1138 -40.1131 -40.0250 -40.0197
   -19.3794 -19.3732 -18.4594 -18.4590 -10.9456 -10.9358  -9.6267  -9.6228
    -9.1831  -9.1724  -8.5330  -8.5269  -7.9667  -7.9285  -6.9598  -6.9317
    -6.4916  -6.4663  -3.8439  -3.8140  -3.4800  -3.4683  -3.3836  -3.3176
    -2.2112  -2.1645   0.5114   0.5153   0.6245   0.6249   2.2810   2.2842
     2.5514   2.5515   2.9215   2.9219   3.7382   3.7648   4.0698   4.0703
     5.0558   5.0778   5.2483   5.2493   5.9165   5.9282   5.9834   6.0307
     6.9952   6.9977   7.1806   7.1905   7.6854   7.7057   8.6193   8.6417
     8.6642   8.6702   9.5656   9.5673  10.3960  10.4508  10.9806  10.9992

     occupation numbers 
     1.0000   1.0000   1.0000   1.0000   1.0000   1.0000   1.0000   1.0000
     1.0000   1.0000   1.0000   1.0000   1.0000   1.0000   1.0000   1.0000
     1.0000   1.0000   1.0000   1.0000   1.0000   1.0000   1.0000   1.0000
     1.0000   1.0000   0.0000   0.0000   0.0000   0.0000   0.0000   0.0000
     0.0000   0.0000   0.0000   0.0000   0.0000   0.0000   0.0000   0.0000
     0.0000   0.0000   0.0000   0.0000   0.0000   0.0000   0.0000   0.0000
     0.0000   0.0000   0.0000   0.0000   0.0000   0.0000   0.0000   0.0000
     0.0000   0.0000   0.0000   0.0000   0.0000   0.0000   0.0000   0.0000
     0.0000   0.0000   0.0000   0.0000   0.0000   0.0000   0.0000   0.0000

          k = 0.0833 1.0104 0.0000 (  5818 PWs)   bands (ev):

   -66.7680 -66.7680 -42.5360 -42.5349 -40.0931 -40.0923 -39.9836 -39.9811
   -19.7376 -19.7355 -18.6057 -18.6056 -11.2239 -11.2212  -9.1642  -9.1526
    -8.6354  -8.6347  -8.2710  -8.2454  -7.9894  -7.9845  -6.9294  -6.9051
    -6.1337  -6.1284  -3.5480  -3.5359  -3.4650  -3.4112  -3.2546  -3.2277
    -2.6754  -2.6263   0.0113   0.0132   0.1157   0.1158   1.5387   1.5425
     2.0786   2.0786   2.0960   2.0972   4.1099   4.1224   4.3060   4.3068
     4.8136   4.8374   4.8759   4.8761   5.6148   5.6235   5.7926   5.8353
     6.8057   6.8166   7.1007   7.1043   8.0157   8.0195   8.4947   8.5013
     9.2561   9.3398   9.4032   9.4076  10.3602  10.4197  10.6670  10.6834

     occupation numbers 
     1.0000   1.0000   1.0000   1.0000   1.0000   1.0000   1.0000   1.0000
     1.0000   1.0000   1.0000   1.0000   1.0000   1.0000   1.0000   1.0000
     1.0000   1.0000   1.0000   1.0000   1.0000   1.0000   1.0000   1.0000
[...]
     0.0000   0.0000   0.0000   0.0000   0.0000   0.0000   0.0000   0.0000
     0.0000   0.0000   0.0000   0.0000   0.0000   0.0000   0.0000   0.0000
     0.0000   0.0000   0.0000   0.0000   0.0000   0.0000   0.0000   0.0000
     0.0000   0.0000   0.0000   0.0000   0.0000   0.0000   0.0000   0.0000

          k = 0.9167 0.5292 0.0000 (  5799 PWs)   bands (ev):

   -66.7727 -66.7727 -42.5224 -42.5224 -40.0856 -40.0856 -39.9534 -39.9534
   -19.9327 -19.9327 -18.6854 -18.6854 -11.4313 -11.4313  -8.7928  -8.7928
    -8.4540  -8.4540  -8.2018  -8.2018  -7.6095  -7.6095  -7.1081  -7.1081
    -5.9849  -5.9849  -3.3101  -3.3101  -3.2003  -3.2003  -3.0480  -3.0480
    -2.9716  -2.9716  -0.2877  -0.2877  -0.1494  -0.1494   0.8260   0.8260
     1.7692   1.7692   1.8258   1.8258   3.6285   3.6285   4.2769   4.2769
     4.7319   4.7319   4.8392   4.8392   5.3697   5.3697   6.3271   6.3271
     6.8005   6.8005   7.1420   7.1420   7.9779   7.9779   8.3979   8.3979
     9.7265   9.7265  10.2246  10.2246  10.4014  10.4014  10.6019  10.6019

     occupation numbers 
     1.0000   1.0000   1.0000   1.0000   1.0000   1.0000   1.0000   1.0000
     1.0000   1.0000   1.0000   1.0000   1.0000   1.0000   1.0000   1.0000
     1.0000   1.0000   1.0000   1.0000   1.0000   1.0000   1.0000   1.0000
     1.0000   1.0000   0.0000   0.0000   0.0000   0.0000   0.0000   0.0000
     0.0000   0.0000   0.0000   0.0000   0.0000   0.0000   0.0000   0.0000
     0.0000   0.0000   0.0000   0.0000   0.0000   0.0000   0.0000   0.0000
     0.0000   0.0000   0.0000   0.0000   0.0000   0.0000   0.0000   0.0000
     0.0000   0.0000   0.0000   0.0000   0.0000   0.0000   0.0000   0.0000
     0.0000   0.0000   0.0000   0.0000   0.0000   0.0000   0.0000   0.0000

          k = 0.9167 0.6255 0.0000 (  5799 PWs)   bands (ev):

   -66.7727 -66.7727 -42.5224 -42.5224 -40.0856 -40.0856 -39.9534 -39.9534
   -19.9327 -19.9327 -18.6854 -18.6854 -11.4313 -11.4313  -8.7928  -8.7928
    -8.4540  -8.4540  -8.2018  -8.2018  -7.6095  -7.6095  -7.1081  -7.1081
    -5.9849  -5.9849  -3.3101  -3.3101  -3.2003  -3.2003  -3.0480  -3.0480
    -2.9716  -2.9716  -0.2877  -0.2877  -0.1494  -0.1494   0.8260   0.8260
     1.7692   1.7692   1.8258   1.8258   3.6285   3.6285   4.2769   4.2769
     4.7319   4.7319   4.8392   4.8392   5.3697   5.3697   6.3271   6.3271
     6.8005   6.8005   7.1420   7.1420   7.9779   7.9779   8.3979   8.3979
     9.7265   9.7265  10.2246  10.2246  10.4014  10.4014  10.6019  10.6019

     occupation numbers 
     1.0000   1.0000   1.0000   1.0000   1.0000   1.0000   1.0000   1.0000
     1.0000   1.0000   1.0000   1.0000   1.0000   1.0000   1.0000   1.0000
     1.0000   1.0000   1.0000   1.0000   1.0000   1.0000   1.0000   1.0000
     1.0000   1.0000   0.0000   0.0000   0.0000   0.0000   0.0000   0.0000
     0.0000   0.0000   0.0000   0.0000   0.0000   0.0000   0.0000   0.0000
     0.0000   0.0000   0.0000   0.0000   0.0000   0.0000   0.0000   0.0000
     0.0000   0.0000   0.0000   0.0000   0.0000   0.0000   0.0000   0.0000
     0.0000   0.0000   0.0000   0.0000   0.0000   0.0000   0.0000   0.0000
     0.0000   0.0000   0.0000   0.0000   0.0000   0.0000   0.0000   0.0000

          k = 0.9167 0.7217 0.0000 (  5818 PWs)   bands (ev):

   -66.7680 -66.7680 -42.5360 -42.5349 -40.0931 -40.0923 -39.9836 -39.9811
   -19.7376 -19.7355 -18.6057 -18.6056 -11.2239 -11.2212  -9.1642  -9.1526
    -8.6354  -8.6347  -8.2710  -8.2454  -7.9894  -7.9845  -6.9294  -6.9051
    -6.1337  -6.1284  -3.5480  -3.5359  -3.4650  -3.4112  -3.2546  -3.2277
    -2.6754  -2.6263   0.0113   0.0132   0.1157   0.1158   1.5387   1.5425
     2.0786   2.0786   2.0960   2.0972   4.1099   4.1224   4.3060   4.3068
     4.8136   4.8374   4.8759   4.8761   5.6148   5.6235   5.7926   5.8353
     6.8057   6.8166   7.1007   7.1043   8.0157   8.0195   8.4947   8.5013
     9.2561   9.3398   9.4032   9.4076  10.3602  10.4197  10.6670  10.6834

     occupation numbers 
     1.0000   1.0000   1.0000   1.0000   1.0000   1.0000   1.0000   1.0000
     1.0000   1.0000   1.0000   1.0000   1.0000   1.0000   1.0000   1.0000
     1.0000   1.0000   1.0000   1.0000   1.0000   1.0000   1.0000   1.0000
     1.0000   1.0000   0.0000   0.0000   0.0000   0.0000   0.0000   0.0000
     0.0000   0.0000   0.0000   0.0000   0.0000   0.0000   0.0000   0.0000
     0.0000   0.0000   0.0000   0.0000   0.0000   0.0000   0.0000   0.0000
     0.0000   0.0000   0.0000   0.0000   0.0000   0.0000   0.0000   0.0000
     0.0000   0.0000   0.0000   0.0000   0.0000   0.0000   0.0000   0.0000
     0.0000   0.0000   0.0000   0.0000   0.0000   0.0000   0.0000   0.0000

          k = 0.9167 0.8179 0.0000 (  5839 PWs)   bands (ev):

   -66.7599 -66.7599 -42.5602 -42.5570 -40.1138 -40.1131 -40.0250 -40.0197
   -19.3794 -19.3732 -18.4594 -18.4590 -10.9456 -10.9358  -9.6267  -9.6228
    -9.1831  -9.1724  -8.5330  -8.5269  -7.9667  -7.9285  -6.9598  -6.9317
    -6.4916  -6.4663  -3.8439  -3.8140  -3.4800  -3.4683  -3.3836  -3.3176
    -2.2112  -2.1645   0.5114   0.5153   0.6245   0.6249   2.2810   2.2842
     2.5514   2.5515   2.9215   2.9219   3.7382   3.7648   4.0698   4.0703
     5.0558   5.0778   5.2483   5.2493   5.9165   5.9282   5.9834   6.0307
     6.9952   6.9977   7.1806   7.1905   7.6854   7.7057   8.6193   8.6417
     8.6642   8.6702   9.5656   9.5673  10.3960  10.4508  10.9806  10.9992

     occupation numbers 
     1.0000   1.0000   1.0000   1.0000   1.0000   1.0000   1.0000   1.0000
     1.0000   1.0000   1.0000   1.0000   1.0000   1.0000   1.0000   1.0000
     1.0000   1.0000   1.0000   1.0000   1.0000   1.0000   1.0000   1.0000
     1.0000   1.0000   0.0000   0.0000   0.0000   0.0000   0.0000   0.0000
     0.0000   0.0000   0.0000   0.0000   0.0000   0.0000   0.0000   0.0000
     0.0000   0.0000   0.0000   0.0000   0.0000   0.0000   0.0000   0.0000
     0.0000   0.0000   0.0000   0.0000   0.0000   0.0000   0.0000   0.0000
     0.0000   0.0000   0.0000   0.0000   0.0000   0.0000   0.0000   0.0000
     0.0000   0.0000   0.0000   0.0000   0.0000   0.0000   0.0000   0.0000

          k = 0.9167 0.9141 0.0000 (  5838 PWs)   bands (ev):

   -66.7505 -66.7505 -42.5892 -42.5837 -40.1579 -40.1542 -40.0497 -40.0454
   -18.9245 -18.9126 -18.2751 -18.2743 -10.9762 -10.9633  -9.8406  -9.8300
    -9.7906  -9.7843  -8.8949  -8.8846  -7.7291  -7.6659  -7.2471  -7.2247
    -6.8156  -6.7518  -3.9255  -3.8604  -3.5330  -3.5035  -2.9823  -2.9332
    -1.8423  -1.8052   1.1432   1.1520   1.3188   1.3193   2.5740   2.5818
     2.9417   2.9467   2.9691   2.9743   3.5855   3.5892   3.9919   3.9945
     5.4963   5.4996   5.5973   5.6132   6.0988   6.1502   6.6159   6.6283
     6.6366   6.6624   7.3860   7.3905   7.8734   7.9208   9.1326   9.1331
     9.1982   9.2092   9.7416   9.7430  10.0249  10.0296  10.4018  10.4019

     occupation numbers 
     1.0000   1.0000   1.0000   1.0000   1.0000   1.0000   1.0000   1.0000
     1.0000   1.0000   1.0000   1.0000   1.0000   1.0000   1.0000   1.0000
     1.0000   1.0000   1.0000   1.0000   1.0000   1.0000   1.0000   1.0000
     1.0000   1.0000   0.0000   0.0000   0.0000   0.0000   0.0000   0.0000
     0.0000   0.0000   0.0000   0.0000   0.0000   0.0000   0.0000   0.0000
     0.0000   0.0000   0.0000   0.0000   0.0000   0.0000   0.0000   0.0000
     0.0000   0.0000   0.0000   0.0000   0.0000   0.0000   0.0000   0.0000
     0.0000   0.0000   0.0000   0.0000   0.0000   0.0000   0.0000   0.0000
     0.0000   0.0000   0.0000   0.0000   0.0000   0.0000   0.0000   0.0000

          k = 0.9167 1.0104 0.0000 (  5851 PWs)   bands (ev):

   -66.7424 -66.7424 -42.6153 -42.6076 -40.2075 -40.1987 -40.0583 -40.0561
   -18.4807 -18.4624 -18.0989 -18.0976 -11.3103 -11.3101 -10.4190 -10.4113
    -9.8233  -9.8233  -9.0616  -9.0518  -7.6289  -7.5820  -7.5328  -7.5209
    -6.7302  -6.6410  -3.7883  -3.7533  -3.4153  -3.4039  -2.4914  -2.4560
    -1.6866  -1.6616   1.3467   1.3475   2.0094   2.0138   2.0219   2.0221
     2.8793   2.8856   3.4484   3.4541   4.1161   4.1197   4.5138   4.5197
     5.1919   5.2681   5.3348   5.3414   6.0105   6.0420   7.0513   7.0514
     7.0743   7.0827   8.1205   8.1237   8.1445   8.1540   8.5279   8.5311
     8.6463   8.6663   9.6691   9.6707   9.8760   9.8770   9.9637   9.9663

     occupation numbers 
     1.0000   1.0000   1.0000   1.0000   1.0000   1.0000   1.0000   1.0000
     1.0000   1.0000   1.0000   1.0000   1.0000   1.0000   1.0000   1.0000
     1.0000   1.0000   1.0000   1.0000   1.0000   1.0000   1.0000   1.0000
     1.0000   1.0000   0.0000   0.0000   0.0000   0.0000   0.0000   0.0000
     0.0000   0.0000   0.0000   0.0000   0.0000   0.0000   0.0000   0.0000
     0.0000   0.0000   0.0000   0.0000   0.0000   0.0000   0.0000   0.0000
     0.0000   0.0000   0.0000   0.0000   0.0000   0.0000   0.0000   0.0000
     0.0000   0.0000   0.0000   0.0000   0.0000   0.0000   0.0000   0.0000
     0.0000   0.0000   0.0000   0.0000   0.0000   0.0000   0.0000   0.0000

          k = 0.9167 1.1066 0.0000 (  5866 PWs)   bands (ev):

   -66.7377 -66.7377 -42.6308 -42.6218 -40.2375 -40.2261 -40.0609 -40.0597
   -18.1949 -18.1719 -17.9885 -17.9871 -11.5728 -11.5612 -10.7588 -10.7532
    -9.9507  -9.9432  -9.1178  -9.1082  -7.7723  -7.7687  -7.4683  -7.3992
    -6.4948  -6.3949  -3.7178  -3.6772  -3.2421  -3.1459  -2.0936  -2.0628
    -1.7713  -1.7508   0.5189   0.5360   2.4446   2.4448   2.5367   2.5469
     3.1041   3.1074   3.9513   3.9644   4.3904   4.3913   4.5264   4.5765
     5.0903   5.0943   5.5483   5.5486   5.9144   5.9224   6.5716   6.5807
     6.5942   6.6045   7.6848   7.6939   7.7284   7.7285   8.9010   8.9108
     8.9186   8.9241   9.2257   9.2347   9.8542   9.8692  10.3425  10.3498

     occupation numbers 
     1.0000   1.0000   1.0000   1.0000   1.0000   1.0000   1.0000   1.0000
     1.0000   1.0000   1.0000   1.0000   1.0000   1.0000   1.0000   1.0000
     1.0000   1.0000   1.0000   1.0000   1.0000   1.0000   1.0000   1.0000
     1.0000   1.0000   0.0000   0.0000   0.0000   0.0000   0.0000   0.0000
     0.0000   0.0000   0.0000   0.0000   0.0000   0.0000   0.0000   0.0000
     0.0000   0.0000   0.0000   0.0000   0.0000   0.0000   0.0000   0.0000
     0.0000   0.0000   0.0000   0.0000   0.0000   0.0000   0.0000   0.0000
     0.0000   0.0000   0.0000   0.0000   0.0000   0.0000   0.0000   0.0000
     0.0000   0.0000   0.0000   0.0000   0.0000   0.0000   0.0000   0.0000

          k = 0.9167 1.2028 0.0000 (  5866 PWs)   bands (ev):

   -66.7377 -66.7377 -42.6308 -42.6218 -40.2375 -40.2261 -40.0609 -40.0597
   -18.1949 -18.1719 -17.9885 -17.9871 -11.5728 -11.5612 -10.7588 -10.7532
    -9.9507  -9.9432  -9.1178  -9.1082  -7.7723  -7.7687  -7.4683  -7.3992
    -6.4948  -6.3949  -3.7178  -3.6772  -3.2421  -3.1459  -2.0936  -2.0628
    -1.7713  -1.7508   0.5189   0.5360   2.4446   2.4448   2.5367   2.5469
     3.1041   3.1074   3.9513   3.9644   4.3904   4.3913   4.5264   4.5765
     5.0903   5.0943   5.5483   5.5486   5.9144   5.9224   6.5716   6.5807
     6.5942   6.6045   7.6848   7.6939   7.7284   7.7285   8.9010   8.9108
     8.9186   8.9241   9.2257   9.2347   9.8542   9.8692  10.3425  10.3498

     occupation numbers 
     1.0000   1.0000   1.0000   1.0000   1.0000   1.0000   1.0000   1.0000
     1.0000   1.0000   1.0000   1.0000   1.0000   1.0000   1.0000   1.0000
     1.0000   1.0000   1.0000   1.0000   1.0000   1.0000   1.0000   1.0000
     1.0000   1.0000   0.0000   0.0000   0.0000   0.0000   0.0000   0.0000
     0.0000   0.0000   0.0000   0.0000   0.0000   0.0000   0.0000   0.0000
     0.0000   0.0000   0.0000   0.0000   0.0000   0.0000   0.0000   0.0000
     0.0000   0.0000   0.0000   0.0000   0.0000   0.0000   0.0000   0.0000
     0.0000   0.0000   0.0000   0.0000   0.0000   0.0000   0.0000   0.0000
     0.0000   0.0000   0.0000   0.0000   0.0000   0.0000   0.0000   0.0000

          k = 0.9167 1.2990 0.0000 (  5851 PWs)   bands (ev):

   -66.7424 -66.7424 -42.6153 -42.6076 -40.2075 -40.1987 -40.0583 -40.0561
   -18.4807 -18.4624 -18.0989 -18.0976 -11.3103 -11.3101 -10.4190 -10.4113
    -9.8233  -9.8233  -9.0616  -9.0518  -7.6289  -7.5820  -7.5328  -7.5209
    -6.7302  -6.6410  -3.7883  -3.7533  -3.4153  -3.4039  -2.4914  -2.4560
    -1.6866  -1.6616   1.3467   1.3475   2.0094   2.0138   2.0219   2.0221
     2.8793   2.8856   3.4484   3.4541   4.1161   4.1197   4.5138   4.5197
     5.1919   5.2681   5.3348   5.3414   6.0105   6.0420   7.0513   7.0514
     7.0743   7.0827   8.1205   8.1237   8.1445   8.1540   8.5279   8.5311
     8.6463   8.6663   9.6691   9.6707   9.8760   9.8770   9.9637   9.9663

     occupation numbers 
     1.0000   1.0000   1.0000   1.0000   1.0000   1.0000   1.0000   1.0000
     1.0000   1.0000   1.0000   1.0000   1.0000   1.0000   1.0000   1.0000
     1.0000   1.0000   1.0000   1.0000   1.0000   1.0000   1.0000   1.0000
     1.0000   1.0000   0.0000   0.0000   0.0000   0.0000   0.0000   0.0000
     0.0000   0.0000   0.0000   0.0000   0.0000   0.0000   0.0000   0.0000
     0.0000   0.0000   0.0000   0.0000   0.0000   0.0000   0.0000   0.0000
     0.0000   0.0000   0.0000   0.0000   0.0000   0.0000   0.0000   0.0000
     0.0000   0.0000   0.0000   0.0000   0.0000   0.0000   0.0000   0.0000
     0.0000   0.0000   0.0000   0.0000   0.0000   0.0000   0.0000   0.0000

          k = 0.9167 1.3953 0.0000 (  5838 PWs)   bands (ev):

   -66.7505 -66.7505 -42.5892 -42.5837 -40.1579 -40.1542 -40.0497 -40.0454
   -18.9245 -18.9126 -18.2751 -18.2743 -10.9762 -10.9633  -9.8406  -9.8300
    -9.7906  -9.7843  -8.8949  -8.8846  -7.7291  -7.6659  -7.2471  -7.2247
    -6.8156  -6.7518  -3.9255  -3.8604  -3.5330  -3.5035  -2.9823  -2.9332
    -1.8423  -1.8052   1.1432   1.1520   1.3188   1.3193   2.5740   2.5818
     2.9417   2.9467   2.9691   2.9743   3.5855   3.5892   3.9919   3.9945
     5.4963   5.4996   5.5973   5.6132   6.0988   6.1502   6.6159   6.6283
     6.6366   6.6624   7.3860   7.3905   7.8734   7.9208   9.1326   9.1331
     9.1982   9.2092   9.7416   9.7430  10.0249  10.0296  10.4018  10.4019

     occupation numbers 
     1.0000   1.0000   1.0000   1.0000   1.0000   1.0000   1.0000   1.0000
     1.0000   1.0000   1.0000   1.0000   1.0000   1.0000   1.0000   1.0000
     1.0000   1.0000   1.0000   1.0000   1.0000   1.0000   1.0000   1.0000
     1.0000   1.0000   0.0000   0.0000   0.0000   0.0000   0.0000   0.0000
     0.0000   0.0000   0.0000   0.0000   0.0000   0.0000   0.0000   0.0000
     0.0000   0.0000   0.0000   0.0000   0.0000   0.0000   0.0000   0.0000
     0.0000   0.0000   0.0000   0.0000   0.0000   0.0000   0.0000   0.0000
     0.0000   0.0000   0.0000   0.0000   0.0000   0.0000   0.0000   0.0000
     0.0000   0.0000   0.0000   0.0000   0.0000   0.0000   0.0000   0.0000

          k = 0.9167 1.4915 0.0000 (  5839 PWs)   bands (ev):

   -66.7599 -66.7599 -42.5602 -42.5570 -40.1138 -40.1131 -40.0250 -40.0197
   -19.3794 -19.3732 -18.4594 -18.4590 -10.9456 -10.9358  -9.6267  -9.6228
    -9.1831  -9.1724  -8.5330  -8.5269  -7.9667  -7.9285  -6.9598  -6.9317
    -6.4916  -6.4663  -3.8439  -3.8140  -3.4800  -3.4683  -3.3836  -3.3176
    -2.2112  -2.1645   0.5114   0.5153   0.6245   0.6249   2.2810   2.2842
     2.5514   2.5515   2.9215   2.9219   3.7382   3.7648   4.0698   4.0703
     5.0558   5.0778   5.2483   5.2493   5.9165   5.9282   5.9834   6.0307
     6.9952   6.9977   7.1806   7.1905   7.6854   7.7057   8.6193   8.6417
     8.6642   8.6702   9.5656   9.5673  10.3960  10.4508  10.9806  10.9992

     occupation numbers 
     1.0000   1.0000   1.0000   1.0000   1.0000   1.0000   1.0000   1.0000
     1.0000   1.0000   1.0000   1.0000   1.0000   1.0000   1.0000   1.0000
     1.0000   1.0000   1.0000   1.0000   1.0000   1.0000   1.0000   1.0000
     1.0000   1.0000   0.0000   0.0000   0.0000   0.0000   0.0000   0.0000
     0.0000   0.0000   0.0000   0.0000   0.0000   0.0000   0.0000   0.0000
     0.0000   0.0000   0.0000   0.0000   0.0000   0.0000   0.0000   0.0000
     0.0000   0.0000   0.0000   0.0000   0.0000   0.0000   0.0000   0.0000
     0.0000   0.0000   0.0000   0.0000   0.0000   0.0000   0.0000   0.0000
     0.0000   0.0000   0.0000   0.0000   0.0000   0.0000   0.0000   0.0000

          k = 0.9167 1.5877 0.0000 (  5818 PWs)   bands (ev):

   -66.7680 -66.7680 -42.5360 -42.5349 -40.0931 -40.0923 -39.9836 -39.9811
   -19.7376 -19.7355 -18.6057 -18.6056 -11.2239 -11.2212  -9.1642  -9.1526
    -8.6354  -8.6347  -8.2710  -8.2454  -7.9894  -7.9845  -6.9294  -6.9051
    -6.1337  -6.1284  -3.5480  -3.5359  -3.4650  -3.4112  -3.2546  -3.2277
    -2.6754  -2.6263   0.0113   0.0132   0.1157   0.1158   1.5387   1.5425
     2.0786   2.0786   2.0960   2.0972   4.1099   4.1224   4.3060   4.3068
     4.8136   4.8374   4.8759   4.8761   5.6148   5.6235   5.7926   5.8353
     6.8057   6.8166   7.1007   7.1043   8.0157   8.0195   8.4947   8.5013
     9.2561   9.3398   9.4032   9.4076  10.3602  10.4197  10.6670  10.6834

     occupation numbers 
     1.0000   1.0000   1.0000   1.0000   1.0000   1.0000   1.0000   1.0000
     1.0000   1.0000   1.0000   1.0000   1.0000   1.0000   1.0000   1.0000
     1.0000   1.0000   1.0000   1.0000   1.0000   1.0000   1.0000   1.0000
     1.0000   1.0000   0.0000   0.0000   0.0000   0.0000   0.0000   0.0000
     0.0000   0.0000   0.0000   0.0000   0.0000   0.0000   0.0000   0.0000
     0.0000   0.0000   0.0000   0.0000   0.0000   0.0000   0.0000   0.0000
     0.0000   0.0000   0.0000   0.0000   0.0000   0.0000   0.0000   0.0000
     0.0000   0.0000   0.0000   0.0000   0.0000   0.0000   0.0000   0.0000
     0.0000   0.0000   0.0000   0.0000   0.0000   0.0000   0.0000   0.0000

     highest occupied, lowest unoccupied level (ev):    -5.8884   -4.2792

     Writing all to output data dir ./TMD.save/

     init_run     :      0.18s CPU      0.49s WALL (       1 calls)
     electrons    :   6694.88s CPU   6577.86s WALL (       1 calls)

     Called by init_run:
     wfcinit      :      0.00s CPU      0.00s WALL (       1 calls)
     wfcinit:wfcr :     74.41s CPU     76.03s WALL (     144 calls)
     potinit      :      0.04s CPU      0.11s WALL (       1 calls)
     hinit0       :      0.06s CPU      0.14s WALL (       1 calls)

     Called by electrons:
     c_bands      :   6694.85s CPU   6577.81s WALL (       1 calls)
     v_of_rho     :      0.02s CPU      0.02s WALL (       1 calls)
     v_h          :      0.00s CPU      0.00s WALL (       1 calls)
     v_xc         :      0.01s CPU      0.01s WALL (       1 calls)

     Called by c_bands:
     init_us_2    :      0.11s CPU      0.09s WALL (     144 calls)
     init_us_2:cp :      0.11s CPU      0.09s WALL (     144 calls)
     cegterg      :   6604.58s CPU   6486.46s WALL (     650 calls)

     Called by sum_band:

     Called by *egterg:
     cdiaghg      :    626.06s CPU    373.36s WALL (   11925 calls)
     cegterg:over :   1889.96s CPU   1917.44s WALL (   11781 calls)
     cegterg:upda :    323.89s CPU    338.18s WALL (   11781 calls)
     cegterg:last :    517.37s CPU    481.64s WALL (    6951 calls)
     h_psi        :   2595.28s CPU   2754.70s WALL (   12575 calls)
     g_psi        :      7.55s CPU      5.24s WALL (   11781 calls)

     Called by h_psi:
     h_psi:calbec :   1196.62s CPU   1334.58s WALL (   12575 calls)
     vloc_psi     :   1152.17s CPU   1101.02s WALL (   12575 calls)
     add_vuspsi   :    232.09s CPU    307.87s WALL (   12575 calls)

     General routines
     calbec       :   1196.46s CPU   1334.16s WALL (   12575 calls)
     fft          :      0.01s CPU      0.02s WALL (      13 calls)
     fftw         :   1075.61s CPU   1028.88s WALL ( 1928644 calls)
     davcio       :      0.51s CPU      0.92s WALL (     288 calls)

     Parallel routines

     PWSCF        :      1h51m CPU      1h49m WALL


   This run was terminated on:  11:54:56  28Sep2023            

=------------------------------------------------------------------------------=
   JOB DONE.
=------------------------------------------------------------------------------=
