
     Program PWSCF v.7.2 starts on 11Oct2023 at 10:15:48 

     This program is part of the open-source Quantum ESPRESSO suite
     for quantum simulation of materials; please cite
         "P. Giannozzi et al., J. Phys.:Condens. Matter 21 395502 (2009);
         "P. Giannozzi et al., J. Phys.:Condens. Matter 29 465901 (2017);
         "P. Giannozzi et al., J. Chem. Phys. 152 154105 (2020);
          URL http://www.quantum-espresso.org", 
     in publications or presentations arising from this work. More details at
     http://www.quantum-espresso.org/quote

     Parallel version (MPI), running on     6 processors

     MPI processes distributed on     1 nodes
     4809 MiB available memory on the printing compute node when the environment starts

     Reading input from scf.in

     Current dimensions of program PWSCF are:
     Max number of different atomic species (ntypx) = 10
     Max number of k-points (npk) =  40000
     Max angular momentum in pseudopotentials (lmaxx) =  4
Error reading attribute index: expected integer, found *
     Message from routine setup:
     using ibrav=0 with symmetry is DISCOURAGED, use correct ibrav instead

     R & G space division:  proc/nbgrp/npool/nimage =       6
     Subspace diagonalization in iterative solution of the eigenvalue problem:
     a serial algorithm will be used


     Parallelization info
     --------------------
     sticks:   dense  smooth     PW     G-vecs:    dense   smooth      PW
     Min          65      65     20                 7777     7777    1338
     Max          67      67     21                 7793     7793    1367
     Sum         397     397    121                46701    46701    8077

     Using Slab Decomposition



     bravais-lattice index     =            0
     lattice parameter (alat)  =       6.0157  a.u.
     unit-cell volume          =    1370.5212 (a.u.)^3
     number of atoms/cell      =            3
     number of atomic types    =            2
     number of electrons       =        26.00
     number of Kohn-Sham states=           72
     kinetic-energy cutoff     =      40.0000  Ry
     charge density cutoff     =     160.0000  Ry
     scf convergence threshold =      1.0E-10
     mixing beta               =       0.7000
     number of iterations used =            8  local-TF  mixing
     Exchange-correlation= PBE
                           (   1   4   3   4   0   0   0)
     Non magnetic calculation with spin-orbit


     celldm(1)=   6.015677  celldm(2)=   0.000000  celldm(3)=   0.000000
     celldm(4)=   0.000000  celldm(5)=   0.000000  celldm(6)=   0.000000

     crystal axes: (cart. coord. in units of alat)
               a(1) = (   1.000000   0.000000   0.000000 )  
               a(2) = (  -0.500000   0.866025   0.000000 )  
               a(3) = (   0.000000   0.000000   7.269451 )  

     reciprocal axes: (cart. coord. in units 2 pi/alat)
               b(1) = (  1.000000  0.577350 -0.000000 )  
               b(2) = (  0.000000  1.154701  0.000000 )  
               b(3) = (  0.000000 -0.000000  0.137562 )  


     PseudoPot. # 1 for Mo read from file:
     ../pseudo/SG15/Mo_ONCV_PBE_FR-1.0.upf
     MD5 check sum: 05288ac22f87858946b79311c37e479e
     Pseudo is Norm-conserving, Zval = 14.0
     Generated using ONCVPSP code by D. R. Hamann
     Using radial grid of  602 points, 10 beta functions with: 
                l(1) =   0
                l(2) =   0
                l(3) =   1
                l(4) =   1
                l(5) =   1
                l(6) =   1
                l(7) =   2
                l(8) =   2
                l(9) =   2
               l(10) =   2

     PseudoPot. # 2 for S  read from file:
     ../pseudo/SG15/S_ONCV_PBE_FR-1.1.upf
     MD5 check sum: 520a35214b8921ef5a3e305e16abb38a
     Pseudo is Norm-conserving, Zval =  6.0
     Generated using ONCVPSP code by D. R. Hamann
     Using radial grid of  602 points,  6 beta functions with: 
                l(1) =   0
                l(2) =   0
                l(3) =   1
                l(4) =   1
                l(5) =   1
                l(6) =   1

     atomic species   valence    mass     pseudopotential
        Mo            14.00    95.94000     Mo( 1.00)
        S              6.00    32.05900     S ( 1.00)

     12 Sym. Ops. (no inversion) found


                                    s                        frac. trans.

      isym =  1     identity                                     

 cryst.   s( 1) = (     1          0          0      )
                  (     0          1          0      )
                  (     0          0          1      )

 cart.    s( 1) = (  1.0000000  0.0000000  0.0000000 )
                  (  0.0000000  1.0000000  0.0000000 )
                  (  0.0000000  0.0000000  1.0000000 )


      isym =  2     180 deg rotation - cart. axis [0,1,0]        

 cryst.   s( 2) = (    -1          0          0      )
                  (     1          1          0      )
                  (     0          0         -1      )

 cart.    s( 2) = ( -1.0000000  0.0000000  0.0000000 )
                  (  0.0000000  1.0000000  0.0000000 )
                  (  0.0000000  0.0000000 -1.0000000 )


      isym =  3     120 deg rotation - cryst. axis [0,0,1]       

 cryst.   s( 3) = (     0          1          0      )
                  (    -1         -1          0      )
                  (     0          0          1      )

 cart.    s( 3) = ( -0.5000000 -0.8660254  0.0000000 )
                  (  0.8660254 -0.5000000  0.0000000 )
                  (  0.0000000  0.0000000  1.0000000 )


      isym =  4     120 deg rotation - cryst. axis [0,0,-1]      

 cryst.   s( 4) = (    -1         -1          0      )
                  (     1          0          0      )
                  (     0          0          1      )

 cart.    s( 4) = ( -0.5000000  0.8660254  0.0000000 )
                  ( -0.8660254 -0.5000000  0.0000000 )
                  (  0.0000000  0.0000000  1.0000000 )


      isym =  5     180 deg rotation - cryst. axis [1,-1,0]      

 cryst.   s( 5) = (     0         -1          0      )
                  (    -1          0          0      )
                  (     0          0         -1      )

 cart.    s( 5) = (  0.5000000 -0.8660254  0.0000000 )
                  ( -0.8660254 -0.5000000  0.0000000 )
                  (  0.0000000  0.0000000 -1.0000000 )


      isym =  6     180 deg rotation - cryst. axis [2,1,0]       

 cryst.   s( 6) = (     1          1          0      )
                  (     0         -1          0      )
                  (     0          0         -1      )

 cart.    s( 6) = (  0.5000000  0.8660254  0.0000000 )
                  (  0.8660254 -0.5000000  0.0000000 )
                  (  0.0000000  0.0000000 -1.0000000 )


      isym =  7     inv. 180 deg rotation - cart. axis [0,0,1]   

 cryst.   s( 7) = (     1          0          0      )
                  (     0          1          0      )
                  (     0          0         -1      )

 cart.    s( 7) = (  1.0000000  0.0000000  0.0000000 )
                  (  0.0000000  1.0000000  0.0000000 )
                  (  0.0000000  0.0000000 -1.0000000 )


      isym =  8     inv. 180 deg rotation - cart. axis [1,0,0]   

 cryst.   s( 8) = (    -1          0          0      )
                  (     1          1          0      )
                  (     0          0          1      )

 cart.    s( 8) = ( -1.0000000  0.0000000  0.0000000 )
                  (  0.0000000  1.0000000  0.0000000 )
                  (  0.0000000  0.0000000  1.0000000 )


      isym =  9     inv.  60 deg rotation - cryst. axis [0,0,1]  

 cryst.   s( 9) = (    -1         -1          0      )
                  (     1          0          0      )
                  (     0          0         -1      )

 cart.    s( 9) = ( -0.5000000  0.8660254  0.0000000 )
                  ( -0.8660254 -0.5000000  0.0000000 )
                  (  0.0000000  0.0000000 -1.0000000 )


      isym = 10     inv.  60 deg rotation - cryst. axis [0,0,-1] 

 cryst.   s(10) = (     0          1          0      )
                  (    -1         -1          0      )
                  (     0          0         -1      )

 cart.    s(10) = ( -0.5000000 -0.8660254  0.0000000 )
                  (  0.8660254 -0.5000000  0.0000000 )
                  (  0.0000000  0.0000000 -1.0000000 )


      isym = 11     inv. 180 deg rotation - cryst. axis [0,1,0]  

 cryst.   s(11) = (     1          1          0      )
                  (     0         -1          0      )
                  (     0          0          1      )

 cart.    s(11) = (  0.5000000  0.8660254  0.0000000 )
                  (  0.8660254 -0.5000000  0.0000000 )
                  (  0.0000000  0.0000000  1.0000000 )


      isym = 12     inv. 180 deg rotation - cryst. axis [1,1,0]  

 cryst.   s(12) = (     0         -1          0      )
                  (    -1          0          0      )
                  (     0          0          1      )

 cart.    s(12) = (  0.5000000 -0.8660254  0.0000000 )
                  ( -0.8660254 -0.5000000  0.0000000 )
                  (  0.0000000  0.0000000  1.0000000 )


   Cartesian axes

     site n.     atom                  positions (alat units)
         1           Mo  tau(   1) = (   0.0000000   0.5773503   3.6347257  )
         2           S   tau(   2) = (   0.5000000   0.2886751   4.1254875  )
         3           S   tau(   3) = (   0.5000000   0.2886751   3.1439638  )

   Crystallographic axes

     site n.     atom                  positions (cryst. coord.)
         1           Mo  tau(   1) = (  0.3333333  0.6666667  0.5000000  )
         2           S   tau(   2) = (  0.6666667  0.3333333  0.5675102  )
         3           S   tau(   3) = (  0.6666667  0.3333333  0.4324898  )

     number of k points=    19
                       cart. coord. in units 2pi/alat
        k(    1) = (   0.0000000   0.0000000   0.0000000), wk =   0.0069444
        k(    2) = (   0.0000000   0.0962250   0.0000000), wk =   0.0416667
        k(    3) = (   0.0000000   0.1924501   0.0000000), wk =   0.0416667
        k(    4) = (   0.0000000   0.2886751   0.0000000), wk =   0.0416667
        k(    5) = (   0.0000000   0.3849002   0.0000000), wk =   0.0416667
        k(    6) = (   0.0000000   0.4811252   0.0000000), wk =   0.0416667
        k(    7) = (   0.0000000  -0.5773503   0.0000000), wk =   0.0208333
        k(    8) = (   0.0833333   0.1443376   0.0000000), wk =   0.0416667
        k(    9) = (   0.0833333   0.2405626   0.0000000), wk =   0.0833333
        k(   10) = (   0.0833333   0.3367877   0.0000000), wk =   0.0833333
        k(   11) = (   0.0833333   0.4330127   0.0000000), wk =   0.0833333
        k(   12) = (   0.0833333   0.5292377   0.0000000), wk =   0.0833333
        k(   13) = (   0.1666667   0.2886751   0.0000000), wk =   0.0416667
        k(   14) = (   0.1666667   0.3849002   0.0000000), wk =   0.0833333
        k(   15) = (   0.1666667   0.4811252   0.0000000), wk =   0.0833333
        k(   16) = (   0.1666667   0.5773503   0.0000000), wk =   0.0416667
        k(   17) = (   0.2500000   0.4330127   0.0000000), wk =   0.0416667
        k(   18) = (   0.2500000   0.5292377   0.0000000), wk =   0.0833333
        k(   19) = (   0.3333333   0.5773503   0.0000000), wk =   0.0138889

                       cryst. coord.
        k(    1) = (   0.0000000   0.0000000   0.0000000), wk =   0.0069444
        k(    2) = (   0.0000000   0.0833333   0.0000000), wk =   0.0416667
        k(    3) = (   0.0000000   0.1666667   0.0000000), wk =   0.0416667
        k(    4) = (   0.0000000   0.2500000   0.0000000), wk =   0.0416667
        k(    5) = (   0.0000000   0.3333333   0.0000000), wk =   0.0416667
        k(    6) = (   0.0000000   0.4166667   0.0000000), wk =   0.0416667
        k(    7) = (   0.0000000  -0.5000000   0.0000000), wk =   0.0208333
        k(    8) = (   0.0833333   0.0833333   0.0000000), wk =   0.0416667
        k(    9) = (   0.0833333   0.1666667   0.0000000), wk =   0.0833333
        k(   10) = (   0.0833333   0.2500000   0.0000000), wk =   0.0833333
        k(   11) = (   0.0833333   0.3333333   0.0000000), wk =   0.0833333
        k(   12) = (   0.0833333   0.4166667   0.0000000), wk =   0.0833333
        k(   13) = (   0.1666667   0.1666667   0.0000000), wk =   0.0416667
        k(   14) = (   0.1666667   0.2500000   0.0000000), wk =   0.0833333
        k(   15) = (   0.1666667   0.3333333   0.0000000), wk =   0.0833333
        k(   16) = (   0.1666667   0.4166667   0.0000000), wk =   0.0416667
        k(   17) = (   0.2500000   0.2500000   0.0000000), wk =   0.0416667
        k(   18) = (   0.2500000   0.3333333   0.0000000), wk =   0.0833333
        k(   19) = (   0.3333333   0.3333333   0.0000000), wk =   0.0138889

     Dense  grid:    46701 G-vectors     FFT dimensions: (  25,  25, 180)

     Dynamical RAM for                 wfc:       2.14 MB

     Dynamical RAM for     wfc (w. buffer):      42.85 MB

     Dynamical RAM for           str. fact:       0.24 MB

     Dynamical RAM for           local pot:       0.00 MB

     Dynamical RAM for          nlocal pot:       0.92 MB

     Dynamical RAM for                qrad:       5.32 MB

     Dynamical RAM for          rho,v,vnew:       3.14 MB

     Dynamical RAM for               rhoin:       1.05 MB

     Dynamical RAM for            rho*nmix:       7.60 MB

     Dynamical RAM for           G-vectors:       0.50 MB

     Dynamical RAM for          h,s,v(r/c):       0.95 MB

     Dynamical RAM for          <psi|beta>:       0.14 MB

     Dynamical RAM for                 psi:       4.28 MB

     Dynamical RAM for                hpsi:       4.28 MB

     Dynamical RAM for      wfcinit/wfcrot:       3.33 MB

     Estimated static dynamical RAM per process >      55.52 MB

     Estimated max dynamical RAM per process >      72.77 MB

     Estimated total dynamical RAM >     436.64 MB
 ----2D----2D----2D----2D----2D----2D----2D----2D----2D----2D----2D----2D
  The code is running with the 2D cutoff
  Please refer to:
  Sohier, T., Calandra, M., & Mauri, F. (2017), 
  Density functional perturbation theory for gated two-dimensional heterostructures:
  Theoretical developments and application to flexural phonons in graphene.
  Physical Review B, 96(7), 75448. https://doi.org/10.1103/PhysRevB.96.075448
 ----2D----2D----2D----2D----2D----2D----2D----2D----2D----2D----2D----2D

     Initial potential from superposition of free atoms

     starting charge      25.8886, renormalised to      26.0000

     negative rho (up, down):  4.374E-04 0.000E+00
     Starting wfcs are random

     total cpu time spent up to now is        2.3 secs

     Self-consistent Calculation

     iteration #  1     ecut=    40.00 Ry     beta= 0.70
     Davidson diagonalization with overlap

---- Real-time Memory Report at c_bands before calling an iterative solver
            82 MiB given to the printing process from OS
             0 MiB allocation reported by mallinfo(arena+hblkhd)
          4420 MiB available memory on the node where the printing process lives
------------------
     ethr =  1.00E-02,  avg # of iterations = 11.8

     Threshold (ethr) on eigenvalues was too large:
     Diagonalizing with lowered threshold

     Davidson diagonalization with overlap

---- Real-time Memory Report at c_bands before calling an iterative solver
            91 MiB given to the printing process from OS
             0 MiB allocation reported by mallinfo(arena+hblkhd)
          4364 MiB available memory on the node where the printing process lives
------------------
     ethr =  3.78E-04,  avg # of iterations =  8.5

     negative rho (up, down):  1.792E-08 0.000E+00

     total cpu time spent up to now is       50.8 secs

     total energy              =    -178.23676975 Ry
     estimated scf accuracy    <       0.09005907 Ry

     iteration #  2     ecut=    40.00 Ry     beta= 0.70
     Davidson diagonalization with overlap

---- Real-time Memory Report at c_bands before calling an iterative solver
            91 MiB given to the printing process from OS
             0 MiB allocation reported by mallinfo(arena+hblkhd)
          4330 MiB available memory on the node where the printing process lives
------------------
     ethr =  3.46E-04,  avg # of iterations =  1.8

     total cpu time spent up to now is       58.3 secs

     total energy              =    -178.24024991 Ry
     estimated scf accuracy    <       0.02406290 Ry

     iteration #  3     ecut=    40.00 Ry     beta= 0.70
     Davidson diagonalization with overlap

---- Real-time Memory Report at c_bands before calling an iterative solver
            95 MiB given to the printing process from OS
             0 MiB allocation reported by mallinfo(arena+hblkhd)
          4297 MiB available memory on the node where the printing process lives
------------------
     ethr =  9.25E-05,  avg # of iterations =  4.5

     total cpu time spent up to now is       67.0 secs

     total energy              =    -178.23992382 Ry
     estimated scf accuracy    <       0.00574571 Ry

     iteration #  4     ecut=    40.00 Ry     beta= 0.70
     Davidson diagonalization with overlap

---- Real-time Memory Report at c_bands before calling an iterative solver
            96 MiB given to the printing process from OS
             0 MiB allocation reported by mallinfo(arena+hblkhd)
          4291 MiB available memory on the node where the printing process lives
------------------
     ethr =  2.21E-05,  avg # of iterations =  6.2

     total cpu time spent up to now is       77.9 secs

     total energy              =    -178.24019999 Ry
     estimated scf accuracy    <       0.00104189 Ry

     iteration #  5     ecut=    40.00 Ry     beta= 0.70
     Davidson diagonalization with overlap

---- Real-time Memory Report at c_bands before calling an iterative solver
            97 MiB given to the printing process from OS
             0 MiB allocation reported by mallinfo(arena+hblkhd)
          4282 MiB available memory on the node where the printing process lives
------------------
     c_bands:  1 eigenvalues not converged
     ethr =  4.01E-06,  avg # of iterations =  6.8

     total cpu time spent up to now is       89.9 secs

     total energy              =    -178.24014605 Ry
     estimated scf accuracy    <       0.00033974 Ry

     iteration #  6     ecut=    40.00 Ry     beta= 0.70
     Davidson diagonalization with overlap

---- Real-time Memory Report at c_bands before calling an iterative solver
            98 MiB given to the printing process from OS
             0 MiB allocation reported by mallinfo(arena+hblkhd)
          4272 MiB available memory on the node where the printing process lives
------------------
     c_bands:  1 eigenvalues not converged
     ethr =  1.31E-06,  avg # of iterations =  8.1

     negative rho (up, down):  6.226E-05 0.000E+00

     total cpu time spent up to now is      102.1 secs

     total energy              =    -178.24004584 Ry
     estimated scf accuracy    <       0.00017694 Ry

     iteration #  7     ecut=    40.00 Ry     beta= 0.70
     Davidson diagonalization with overlap

---- Real-time Memory Report at c_bands before calling an iterative solver
            99 MiB given to the printing process from OS
             0 MiB allocation reported by mallinfo(arena+hblkhd)
          4258 MiB available memory on the node where the printing process lives
------------------
     ethr =  6.81E-07,  avg # of iterations =  8.0

     negative rho (up, down):  1.707E-03 0.000E+00

     total cpu time spent up to now is      116.8 secs

     total energy              =    -178.24001213 Ry
     estimated scf accuracy    <       0.00008303 Ry

     iteration #  8     ecut=    40.00 Ry     beta= 0.70
     Davidson diagonalization with overlap

---- Real-time Memory Report at c_bands before calling an iterative solver
           100 MiB given to the printing process from OS
             0 MiB allocation reported by mallinfo(arena+hblkhd)
          4231 MiB available memory on the node where the printing process lives
------------------
     ethr =  3.19E-07,  avg # of iterations = 11.2

     negative rho (up, down):  6.137E-04 0.000E+00

     total cpu time spent up to now is      135.1 secs

     total energy              =    -178.24002816 Ry
     estimated scf accuracy    <       0.00001383 Ry

     iteration #  9     ecut=    40.00 Ry     beta= 0.70
     Davidson diagonalization with overlap

---- Real-time Memory Report at c_bands before calling an iterative solver
           101 MiB given to the printing process from OS
             0 MiB allocation reported by mallinfo(arena+hblkhd)
          4204 MiB available memory on the node where the printing process lives
------------------
     ethr =  5.32E-08,  avg # of iterations = 12.1

     negative rho (up, down):  2.560E-04 0.000E+00

     total cpu time spent up to now is      156.2 secs

     total energy              =    -178.24002883 Ry
     estimated scf accuracy    <       0.00000346 Ry

     iteration # 10     ecut=    40.00 Ry     beta= 0.70
     Davidson diagonalization with overlap

---- Real-time Memory Report at c_bands before calling an iterative solver
           102 MiB given to the printing process from OS
             0 MiB allocation reported by mallinfo(arena+hblkhd)
          4237 MiB available memory on the node where the printing process lives
------------------
     ethr =  1.33E-08,  avg # of iterations = 12.1

     negative rho (up, down):  2.403E-05 0.000E+00

     total cpu time spent up to now is      175.5 secs

     total energy              =    -178.24002835 Ry
     estimated scf accuracy    <       0.00000065 Ry

     iteration # 11     ecut=    40.00 Ry     beta= 0.70
     Davidson diagonalization with overlap

---- Real-time Memory Report at c_bands before calling an iterative solver
           103 MiB given to the printing process from OS
             0 MiB allocation reported by mallinfo(arena+hblkhd)
          4208 MiB available memory on the node where the printing process lives
------------------
     c_bands:  1 eigenvalues not converged
     ethr =  2.50E-09,  avg # of iterations = 16.2

     negative rho (up, down):  3.317E-06 0.000E+00

     total cpu time spent up to now is      200.3 secs

     total energy              =    -178.24002842 Ry
     estimated scf accuracy    <       0.00000002 Ry

     iteration # 12     ecut=    40.00 Ry     beta= 0.70
     Davidson diagonalization with overlap

---- Real-time Memory Report at c_bands before calling an iterative solver
           103 MiB given to the printing process from OS
             0 MiB allocation reported by mallinfo(arena+hblkhd)
          4209 MiB available memory on the node where the printing process lives
------------------
     c_bands:  2 eigenvalues not converged
     c_bands:  2 eigenvalues not converged
     c_bands:  2 eigenvalues not converged
     c_bands:  3 eigenvalues not converged
     c_bands:  2 eigenvalues not converged
     c_bands:  4 eigenvalues not converged
     c_bands:  2 eigenvalues not converged
     c_bands:  2 eigenvalues not converged
     c_bands:  2 eigenvalues not converged
     c_bands:  2 eigenvalues not converged
     ethr =  6.42E-11,  avg # of iterations = 18.3

     negative rho (up, down):  1.436E-06 0.000E+00

     total cpu time spent up to now is      230.1 secs

     total energy              =    -178.24002842 Ry
     estimated scf accuracy    <          1.7E-10 Ry

     iteration # 13     ecut=    40.00 Ry     beta= 0.70
     Davidson diagonalization with overlap

---- Real-time Memory Report at c_bands before calling an iterative solver
           103 MiB given to the printing process from OS
             0 MiB allocation reported by mallinfo(arena+hblkhd)
          4192 MiB available memory on the node where the printing process lives
------------------
     c_bands:  2 eigenvalues not converged
     c_bands:  2 eigenvalues not converged
     c_bands:  2 eigenvalues not converged
     c_bands:  2 eigenvalues not converged
     c_bands:  4 eigenvalues not converged
     c_bands:  4 eigenvalues not converged
     c_bands:  4 eigenvalues not converged
     c_bands:  4 eigenvalues not converged
     c_bands:  4 eigenvalues not converged
     c_bands:  2 eigenvalues not converged
     c_bands:  2 eigenvalues not converged
     c_bands:  4 eigenvalues not converged
     c_bands:  2 eigenvalues not converged
     ethr =  6.66E-13,  avg # of iterations = 19.3

     total cpu time spent up to now is      262.3 secs

     End of self-consistent calculation

          k = 0.0000 0.0000 0.0000 (  5789 PWs)   bands (ev):

   -66.7750 -66.7750 -42.5154 -42.5154 -40.0826 -40.0826 -39.9366 -39.9366
   -20.0346 -20.0346 -18.7269 -18.7269 -11.5480 -11.5480  -8.5944  -8.5944
    -8.5306  -8.5306  -7.7076  -7.7076  -7.4883  -7.4883  -7.4035  -7.4035
    -5.9316  -5.9316  -3.2088  -3.2088  -3.1290  -3.1290  -2.9233  -2.9233
    -2.9228  -2.9228  -0.4831  -0.4831  -0.2853  -0.2853   0.3946   0.3946
     1.6164   1.6164   1.6924   1.6924   3.1601   3.1601   4.2602   4.2602
     4.6118   4.6118   5.0017   5.0017   5.0835   5.0835   6.7143   6.7143
     7.0860   7.0860   7.1002   7.1002   7.9966   7.9966   8.3148   8.3148
    10.2948  10.2948  10.4161  10.4161  10.4288  10.4288  10.6197  10.6197

     occupation numbers 
     1.0000   1.0000   1.0000   1.0000   1.0000   1.0000   1.0000   1.0000
     1.0000   1.0000   1.0000   1.0000   1.0000   1.0000   1.0000   1.0000
     1.0000   1.0000   1.0000   1.0000   1.0000   1.0000   1.0000   1.0000
     1.0000   1.0000   0.0000   0.0000   0.0000   0.0000   0.0000   0.0000
     0.0000   0.0000   0.0000   0.0000   0.0000   0.0000   0.0000   0.0000
     0.0000   0.0000   0.0000   0.0000   0.0000   0.0000   0.0000   0.0000
     0.0000   0.0000   0.0000   0.0000   0.0000   0.0000   0.0000   0.0000
     0.0000   0.0000   0.0000   0.0000   0.0000   0.0000   0.0000   0.0000
     0.0000   0.0000   0.0000   0.0000   0.0000   0.0000   0.0000   0.0000

          k = 0.0000 0.0962 0.0000 (  5799 PWs)   bands (ev):

   -66.7725 -66.7725 -42.5223 -42.5223 -40.0855 -40.0855 -39.9532 -39.9532
   -19.9326 -19.9326 -18.6854 -18.6854 -11.4312 -11.4312  -8.7927  -8.7927
    -8.4539  -8.4539  -8.2017  -8.2017  -7.6094  -7.6094  -7.1080  -7.1080
    -5.9848  -5.9848  -3.3100  -3.3100  -3.2002  -3.2002  -3.0479  -3.0479
    -2.9715  -2.9715  -0.2880  -0.2880  -0.1498  -0.1498   0.8258   0.8258
     1.7659   1.7659   1.8220   1.8220   3.6286   3.6286   4.2702   4.2702
     4.7209   4.7209   4.8362   4.8362   5.3698   5.3698   6.3269   6.3269
     6.7981   6.7981   7.1420   7.1420   7.9690   7.9690   8.3866   8.3866
     9.7258   9.7258  10.2246  10.2246  10.3998  10.3998  10.6019  10.6019

     occupation numbers 
     1.0000   1.0000   1.0000   1.0000   1.0000   1.0000   1.0000   1.0000
     1.0000   1.0000   1.0000   1.0000   1.0000   1.0000   1.0000   1.0000
     1.0000   1.0000   1.0000   1.0000   1.0000   1.0000   1.0000   1.0000
     1.0000   1.0000   0.0000   0.0000   0.0000   0.0000   0.0000   0.0000
     0.0000   0.0000   0.0000   0.0000   0.0000   0.0000   0.0000   0.0000
     0.0000   0.0000   0.0000   0.0000   0.0000   0.0000   0.0000   0.0000
     0.0000   0.0000   0.0000   0.0000   0.0000   0.0000   0.0000   0.0000
     0.0000   0.0000   0.0000   0.0000   0.0000   0.0000   0.0000   0.0000
     0.0000   0.0000   0.0000   0.0000   0.0000   0.0000   0.0000   0.0000

          k = 0.0000 0.1925 0.0000 (  5825 PWs)   bands (ev):

   -66.7656 -66.7656 -42.5414 -42.5414 -40.0974 -40.0974 -39.9937 -39.9937
   -19.6427 -19.6427 -18.5675 -18.5675 -11.1379 -11.1379  -9.3124  -9.3124
    -8.8512  -8.8512  -8.1569  -8.1569  -7.9918  -7.9918  -7.0174  -7.0174
    -6.2222  -6.2222  -3.6372  -3.6372  -3.3569  -3.3569  -3.3016  -3.3016
    -2.5750  -2.5750   0.1349   0.1349   0.2438   0.2438   1.7479   1.7479
     2.1955   2.1955   2.2978   2.2978   3.9594   3.9594   4.2176   4.2176
     4.8875   4.8875   5.0139   5.0139   5.6722   5.6722   6.2377   6.2377
     6.5952   6.5952   7.3621   7.3621   7.9849   7.9849   8.1712   8.1712
     9.2500   9.2500   9.3261   9.3261  10.0766  10.0766  11.0288  11.0288

     occupation numbers 
     1.0000   1.0000   1.0000   1.0000   1.0000   1.0000   1.0000   1.0000
     1.0000   1.0000   1.0000   1.0000   1.0000   1.0000   1.0000   1.0000
     1.0000   1.0000   1.0000   1.0000   1.0000   1.0000   1.0000   1.0000
     1.0000   1.0000   0.0000   0.0000   0.0000   0.0000   0.0000   0.0000
     0.0000   0.0000   0.0000   0.0000   0.0000   0.0000   0.0000   0.0000
     0.0000   0.0000   0.0000   0.0000   0.0000   0.0000   0.0000   0.0000
     0.0000   0.0000   0.0000   0.0000   0.0000   0.0000   0.0000   0.0000
     0.0000   0.0000   0.0000   0.0000   0.0000   0.0000   0.0000   0.0000
     0.0000   0.0000   0.0000   0.0000   0.0000   0.0000   0.0000   0.0000

          k = 0.0000 0.2887 0.0000 (  5830 PWs)   bands (ev):

   -66.7563 -66.7563 -42.5687 -42.5687 -40.1301 -40.1301 -40.0303 -40.0303
   -19.2140 -19.2140 -18.3945 -18.3945 -10.9302 -10.9302  -9.7540  -9.7540
    -9.5065  -9.5065  -8.4276  -8.4276  -7.7374  -7.7374  -7.2585  -7.2585
    -6.6538  -6.6538  -3.7652  -3.7652  -3.5761  -3.5761  -3.0230  -3.0230
    -2.1521  -2.1521   0.7047   0.7047   0.8579   0.8579   2.3225   2.3225
     2.7060   2.7060   2.9748   2.9748   3.5128   3.5128   3.6695   3.6695
     5.3054   5.3054   5.4747   5.4747   6.3468   6.3468   6.3974   6.3974
     7.1117   7.1117   7.8700   7.8700   7.8826   7.8826   7.9916   7.9916
     8.6050   8.6050   9.7554   9.7554  10.1349  10.1349  10.9903  10.9903

     occupation numbers 
     1.0000   1.0000   1.0000   1.0000   1.0000   1.0000   1.0000   1.0000
     1.0000   1.0000   1.0000   1.0000   1.0000   1.0000   1.0000   1.0000
     1.0000   1.0000   1.0000   1.0000   1.0000   1.0000   1.0000   1.0000
     1.0000   1.0000   0.0000   0.0000   0.0000   0.0000   0.0000   0.0000
     0.0000   0.0000   0.0000   0.0000   0.0000   0.0000   0.0000   0.0000
     0.0000   0.0000   0.0000   0.0000   0.0000   0.0000   0.0000   0.0000
     0.0000   0.0000   0.0000   0.0000   0.0000   0.0000   0.0000   0.0000
     0.0000   0.0000   0.0000   0.0000   0.0000   0.0000   0.0000   0.0000
     0.0000   0.0000   0.0000   0.0000   0.0000   0.0000   0.0000   0.0000

          k = 0.0000 0.3849 0.0000 (  5840 PWs)   bands (ev):

   -66.7469 -66.7469 -42.5972 -42.5972 -40.1808 -40.1808 -40.0459 -40.0459
   -18.7341 -18.7341 -18.2046 -18.2046 -11.1766 -11.1766 -10.1145 -10.1145
    -9.8361  -9.8361  -8.7917  -8.7917  -7.5644  -7.5644  -7.3120  -7.3120
    -6.8986  -6.8986  -3.7411  -3.7411  -3.5861  -3.5861  -2.5323  -2.5323
    -1.8423  -1.8423   1.3117   1.3117   1.5671   1.5671   1.9938   1.9938
     2.6256   2.6256   3.0006   3.0006   3.7242   3.7242   4.1334   4.1334
     5.3561   5.3561   5.7530   5.7530   6.5467   6.5467   6.7807   6.7807
     6.8638   6.8638   8.0609   8.0609   8.6484   8.6484   8.6670   8.6670
     9.0088   9.0088   9.3184   9.3184   9.5943   9.5943  10.4971  10.4971

     occupation numbers 
     1.0000   1.0000   1.0000   1.0000   1.0000   1.0000   1.0000   1.0000
     1.0000   1.0000   1.0000   1.0000   1.0000   1.0000   1.0000   1.0000
     1.0000   1.0000   1.0000   1.0000   1.0000   1.0000   1.0000   1.0000
     1.0000   1.0000   0.0000   0.0000   0.0000   0.0000   0.0000   0.0000
     0.0000   0.0000   0.0000   0.0000   0.0000   0.0000   0.0000   0.0000
     0.0000   0.0000   0.0000   0.0000   0.0000   0.0000   0.0000   0.0000
     0.0000   0.0000   0.0000   0.0000   0.0000   0.0000   0.0000   0.0000
     0.0000   0.0000   0.0000   0.0000   0.0000   0.0000   0.0000   0.0000
     0.0000   0.0000   0.0000   0.0000   0.0000   0.0000   0.0000   0.0000

          k = 0.0000 0.4811 0.0000 (  5864 PWs)   bands (ev):

   -66.7400 -66.7400 -42.6188 -42.6188 -40.2228 -40.2228 -40.0508 -40.0508
   -18.3358 -18.3358 -18.0523 -18.0523 -11.5474 -11.5474 -10.5555 -10.5555
    -9.9303  -9.9303  -9.0281  -9.0281  -7.7498  -7.7498  -7.0252  -7.0252
    -6.7264  -6.7264  -3.7426  -3.7426  -3.3329  -3.3329  -2.1666  -2.1666
    -1.6719  -1.6719   0.7771   0.7771   1.9437   1.9437   2.0430   2.0430
     2.8282   2.8282   3.5769   3.5769   4.2079   4.2079   4.5613   4.5613
     5.2973   5.2973   5.7099   5.7099   5.7673   5.7673   6.6777   6.6777
     6.8407   6.8407   7.8863   7.8863   7.9571   7.9571   8.5940   8.5940
     9.0758   9.0758   9.4288   9.4288   9.9368   9.9368  10.5681  10.5681

     occupation numbers 
     1.0000   1.0000   1.0000   1.0000   1.0000   1.0000   1.0000   1.0000
     1.0000   1.0000   1.0000   1.0000   1.0000   1.0000   1.0000   1.0000
     1.0000   1.0000   1.0000   1.0000   1.0000   1.0000   1.0000   1.0000
     1.0000   1.0000   0.0000   0.0000   0.0000   0.0000   0.0000   0.0000
     0.0000   0.0000   0.0000   0.0000   0.0000   0.0000   0.0000   0.0000
     0.0000   0.0000   0.0000   0.0000   0.0000   0.0000   0.0000   0.0000
     0.0000   0.0000   0.0000   0.0000   0.0000   0.0000   0.0000   0.0000
     0.0000   0.0000   0.0000   0.0000   0.0000   0.0000   0.0000   0.0000
     0.0000   0.0000   0.0000   0.0000   0.0000   0.0000   0.0000   0.0000

          k = 0.0000-0.5774 0.0000 (  5868 PWs)   bands (ev):

   -66.7375 -66.7375 -42.6269 -42.6269 -40.2385 -40.2385 -40.0518 -40.0518
   -18.1764 -18.1764 -17.9932 -17.9932 -11.7049 -11.7049 -10.7186 -10.7186
   -10.0049 -10.0049  -9.1095  -9.1095  -7.8102  -7.8102  -6.9242  -6.9242
    -6.5614  -6.5614  -3.7158  -3.7158  -3.1910  -3.1910  -2.0469  -2.0469
    -1.6194  -1.6194   0.2768   0.2768   2.0448   2.0448   2.3344   2.3344
     3.0655   3.0655   3.8299   3.8299   4.3640   4.3640   4.9069   4.9069
     5.4093   5.4093   5.4679   5.4679   5.5223   5.5223   6.3826   6.3826
     6.6739   6.6739   7.1453   7.1453   7.5340   7.5340   9.0725   9.0725
     9.0941   9.0941   9.6968   9.6968   9.7649   9.7649  10.4361  10.4361

     occupation numbers 
     1.0000   1.0000   1.0000   1.0000   1.0000   1.0000   1.0000   1.0000
     1.0000   1.0000   1.0000   1.0000   1.0000   1.0000   1.0000   1.0000
     1.0000   1.0000   1.0000   1.0000   1.0000   1.0000   1.0000   1.0000
     1.0000   1.0000   0.0000   0.0000   0.0000   0.0000   0.0000   0.0000
     0.0000   0.0000   0.0000   0.0000   0.0000   0.0000   0.0000   0.0000
     0.0000   0.0000   0.0000   0.0000   0.0000   0.0000   0.0000   0.0000
     0.0000   0.0000   0.0000   0.0000   0.0000   0.0000   0.0000   0.0000
     0.0000   0.0000   0.0000   0.0000   0.0000   0.0000   0.0000   0.0000
     0.0000   0.0000   0.0000   0.0000   0.0000   0.0000   0.0000   0.0000

          k = 0.0833 0.1443 0.0000 (  5818 PWs)   bands (ev):

   -66.7678 -66.7678 -42.5359 -42.5347 -40.0930 -40.0921 -39.9834 -39.9809
   -19.7376 -19.7355 -18.6057 -18.6055 -11.2238 -11.2211  -9.1641  -9.1525
    -8.6354  -8.6346  -8.2709  -8.2453  -7.9893  -7.9844  -6.9293  -6.9050
    -6.1336  -6.1283  -3.5479  -3.5358  -3.4648  -3.4110  -3.2545  -3.2276
    -2.6753  -2.6262   0.0110   0.0129   0.1153   0.1154   1.5382   1.5419
     2.0748   2.0749   2.0932   2.0944   4.1082   4.1206   4.3059   4.3068
     4.8059   4.8297   4.8666   4.8668   5.6132   5.6218   5.7925   5.8351
     6.8046   6.8155   7.1003   7.1039   8.0065   8.0102   8.4864   8.4929
     9.2554   9.3390   9.3999   9.4043  10.3574  10.4168  10.6670  10.6834

     occupation numbers 
     1.0000   1.0000   1.0000   1.0000   1.0000   1.0000   1.0000   1.0000
     1.0000   1.0000   1.0000   1.0000   1.0000   1.0000   1.0000   1.0000
     1.0000   1.0000   1.0000   1.0000   1.0000   1.0000   1.0000   1.0000
     1.0000   1.0000   0.0000   0.0000   0.0000   0.0000   0.0000   0.0000
     0.0000   0.0000   0.0000   0.0000   0.0000   0.0000   0.0000   0.0000
     0.0000   0.0000   0.0000   0.0000   0.0000   0.0000   0.0000   0.0000
     0.0000   0.0000   0.0000   0.0000   0.0000   0.0000   0.0000   0.0000
     0.0000   0.0000   0.0000   0.0000   0.0000   0.0000   0.0000   0.0000
     0.0000   0.0000   0.0000   0.0000   0.0000   0.0000   0.0000   0.0000

          k = 0.0833 0.2406 0.0000 (  5839 PWs)   bands (ev):

   -66.7597 -66.7597 -42.5601 -42.5569 -40.1136 -40.1129 -40.0249 -40.0196
   -19.3794 -19.3732 -18.4594 -18.4589 -10.9455 -10.9357  -9.6266  -9.6227
    -9.1830  -9.1724  -8.5329  -8.5268  -7.9666  -7.9284  -6.9597  -6.9317
    -6.4915  -6.4662  -3.8438  -3.8139  -3.4799  -3.4682  -3.3835  -3.3175
    -2.2111  -2.1644   0.5111   0.5150   0.6242   0.6245   2.2790   2.2822
     2.5480   2.5480   2.9201   2.9205   3.7382   3.7648   4.0693   4.0697
     5.0477   5.0697   5.2415   5.2425   5.9137   5.9254   5.9828   6.0300
     6.9933   6.9958   7.1799   7.1893   7.6807   7.7014   8.6149   8.6378
     8.6612   8.6670   9.5573   9.5590  10.3907  10.4455  10.9804  10.9990

     occupation numbers 
     1.0000   1.0000   1.0000   1.0000   1.0000   1.0000   1.0000   1.0000
     1.0000   1.0000   1.0000   1.0000   1.0000   1.0000   1.0000   1.0000
     1.0000   1.0000   1.0000   1.0000   1.0000   1.0000   1.0000   1.0000
     1.0000   1.0000   0.0000   0.0000   0.0000   0.0000   0.0000   0.0000
     0.0000   0.0000   0.0000   0.0000   0.0000   0.0000   0.0000   0.0000
     0.0000   0.0000   0.0000   0.0000   0.0000   0.0000   0.0000   0.0000
     0.0000   0.0000   0.0000   0.0000   0.0000   0.0000   0.0000   0.0000
     0.0000   0.0000   0.0000   0.0000   0.0000   0.0000   0.0000   0.0000
     0.0000   0.0000   0.0000   0.0000   0.0000   0.0000   0.0000   0.0000

          k = 0.0833 0.3368 0.0000 (  5838 PWs)   bands (ev):

   -66.7503 -66.7503 -42.5891 -42.5835 -40.1578 -40.1540 -40.0495 -40.0453
   -18.9244 -18.9125 -18.2751 -18.2742 -10.9761 -10.9632  -9.8405  -9.8300
    -9.7905  -9.7842  -8.8948  -8.8845  -7.7290  -7.6658  -7.2471  -7.2246
    -6.8155  -6.7517  -3.9254  -3.8602  -3.5328  -3.5034  -2.9822  -2.9330
    -1.8422  -1.8051   1.1430   1.1518   1.3186   1.3190   2.5740   2.5818
     2.9404   2.9454   2.9675   2.9726   3.5833   3.5870   3.9903   3.9929
     5.4921   5.4954   5.5913   5.6071   6.0985   6.1501   6.6131   6.6235
     6.6337   6.6615   7.3832   7.3877   7.8661   7.9136   9.1315   9.1320
     9.1967   9.2077   9.7376   9.7390  10.0237  10.0283  10.3956  10.3957

     occupation numbers 
     1.0000   1.0000   1.0000   1.0000   1.0000   1.0000   1.0000   1.0000
     1.0000   1.0000   1.0000   1.0000   1.0000   1.0000   1.0000   1.0000
     1.0000   1.0000   1.0000   1.0000   1.0000   1.0000   1.0000   1.0000
     1.0000   1.0000   0.0000   0.0000   0.0000   0.0000   0.0000   0.0000
     0.0000   0.0000   0.0000   0.0000   0.0000   0.0000   0.0000   0.0000
     0.0000   0.0000   0.0000   0.0000   0.0000   0.0000   0.0000   0.0000
     0.0000   0.0000   0.0000   0.0000   0.0000   0.0000   0.0000   0.0000
     0.0000   0.0000   0.0000   0.0000   0.0000   0.0000   0.0000   0.0000
     0.0000   0.0000   0.0000   0.0000   0.0000   0.0000   0.0000   0.0000

          k = 0.0833 0.4330 0.0000 (  5851 PWs)   bands (ev):

   -66.7422 -66.7422 -42.6151 -42.6074 -40.2073 -40.1986 -40.0581 -40.0559
   -18.4806 -18.4623 -18.0988 -18.0976 -11.3102 -11.3100 -10.4189 -10.4112
    -9.8233  -9.8232  -9.0615  -9.0517  -7.6288  -7.5820  -7.5328  -7.5208
    -6.7300  -6.6409  -3.7881  -3.7532  -3.4152  -3.4038  -2.4913  -2.4559
    -1.6865  -1.6615   1.3467   1.3475   2.0093   2.0138   2.0218   2.0221
     2.8791   2.8854   3.4476   3.4533   4.1142   4.1177   4.5121   4.5180
     5.1909   5.2672   5.3323   5.3390   6.0076   6.0390   7.0458   7.0458
     7.0719   7.0803   8.1163   8.1196   8.1404   8.1501   8.5261   8.5293
     8.6412   8.6611   9.6671   9.6687   9.8725   9.8735   9.9600   9.9626

     occupation numbers 
     1.0000   1.0000   1.0000   1.0000   1.0000   1.0000   1.0000   1.0000
     1.0000   1.0000   1.0000   1.0000   1.0000   1.0000   1.0000   1.0000
     1.0000   1.0000   1.0000   1.0000   1.0000   1.0000   1.0000   1.0000
     1.0000   1.0000   0.0000   0.0000   0.0000   0.0000   0.0000   0.0000
     0.0000   0.0000   0.0000   0.0000   0.0000   0.0000   0.0000   0.0000
     0.0000   0.0000   0.0000   0.0000   0.0000   0.0000   0.0000   0.0000
     0.0000   0.0000   0.0000   0.0000   0.0000   0.0000   0.0000   0.0000
     0.0000   0.0000   0.0000   0.0000   0.0000   0.0000   0.0000   0.0000
     0.0000   0.0000   0.0000   0.0000   0.0000   0.0000   0.0000   0.0000

          k = 0.0833 0.5292 0.0000 (  5866 PWs)   bands (ev):

   -66.7375 -66.7375 -42.6306 -42.6216 -40.2374 -40.2259 -40.0607 -40.0595
   -18.1948 -18.1718 -17.9884 -17.9870 -11.5727 -11.5611 -10.7588 -10.7531
    -9.9506  -9.9431  -9.1177  -9.1081  -7.7722  -7.7686  -7.4683  -7.3991
    -6.4947  -6.3948  -3.7177  -3.6771  -3.2420  -3.1457  -2.0935  -2.0627
    -1.7712  -1.7507   0.5189   0.5360   2.4447   2.4449   2.5367   2.5469
     3.1040   3.1074   3.9512   3.9643   4.3900   4.3909   4.5261   4.5762
     5.0898   5.0937   5.5464   5.5466   5.9130   5.9210   6.5686   6.5780
     6.5912   6.6012   7.6809   7.6901   7.7230   7.7231   8.8932   8.9032
     8.9142   8.9193   9.2199   9.2292   9.8475   9.8625  10.3385  10.3457

     occupation numbers 
     1.0000   1.0000   1.0000   1.0000   1.0000   1.0000   1.0000   1.0000
     1.0000   1.0000   1.0000   1.0000   1.0000   1.0000   1.0000   1.0000
     1.0000   1.0000   1.0000   1.0000   1.0000   1.0000   1.0000   1.0000
     1.0000   1.0000   0.0000   0.0000   0.0000   0.0000   0.0000   0.0000
     0.0000   0.0000   0.0000   0.0000   0.0000   0.0000   0.0000   0.0000
     0.0000   0.0000   0.0000   0.0000   0.0000   0.0000   0.0000   0.0000
     0.0000   0.0000   0.0000   0.0000   0.0000   0.0000   0.0000   0.0000
     0.0000   0.0000   0.0000   0.0000   0.0000   0.0000   0.0000   0.0000
     0.0000   0.0000   0.0000   0.0000   0.0000   0.0000   0.0000   0.0000

          k = 0.1667 0.2887 0.0000 (  5840 PWs)   bands (ev):

   -66.7516 -66.7516 -42.5860 -42.5784 -40.1455 -40.1413 -40.0548 -40.0481
   -18.9923 -18.9763 -18.2994 -18.2982 -10.8768 -10.8543  -9.7656  -9.7562
    -9.6227  -9.5926  -9.1352  -9.1058  -7.9488  -7.8751  -7.0011  -6.9670
    -6.7595  -6.6886  -4.0324  -3.9596  -3.4778  -3.4575  -3.2760  -3.2192
    -1.7813  -1.7417   1.0933   1.1025   1.2281   1.2291   2.9015   2.9146
     3.0779   3.0782   3.0945   3.1073   3.8909   3.8918   4.1198   4.1511
     5.2015   5.2355   5.3541   5.3632   5.7311   5.8251   6.3410   6.3833
     6.4056   6.4195   6.9258   6.9260   7.8566   7.9059   9.0210   9.0244
     9.2177   9.2351   9.8874   9.8881  10.8340  10.8592  11.0978  11.1051

     occupation numbers 
     1.0000   1.0000   1.0000   1.0000   1.0000   1.0000   1.0000   1.0000
     1.0000   1.0000   1.0000   1.0000   1.0000   1.0000   1.0000   1.0000
     1.0000   1.0000   1.0000   1.0000   1.0000   1.0000   1.0000   1.0000
     1.0000   1.0000   0.0000   0.0000   0.0000   0.0000   0.0000   0.0000
     0.0000   0.0000   0.0000   0.0000   0.0000   0.0000   0.0000   0.0000
     0.0000   0.0000   0.0000   0.0000   0.0000   0.0000   0.0000   0.0000
     0.0000   0.0000   0.0000   0.0000   0.0000   0.0000   0.0000   0.0000
     0.0000   0.0000   0.0000   0.0000   0.0000   0.0000   0.0000   0.0000
     0.0000   0.0000   0.0000   0.0000   0.0000   0.0000   0.0000   0.0000

          k = 0.1667 0.3849 0.0000 (  5853 PWs)   bands (ev):

   -66.7435 -66.7435 -42.6125 -42.6004 -40.1901 -40.1759 -40.0715 -40.0685
   -18.5645 -18.5364 -18.1219 -18.1199 -11.0584 -11.0465 -10.3082 -10.2922
    -9.6684  -9.6581  -9.2349  -9.2140  -8.2093  -8.1372  -7.2930  -7.2722
    -6.7357  -6.6396  -3.8869  -3.8169  -3.3917  -3.3904  -2.9378  -2.9048
    -1.5354  -1.5227   1.6926   1.7173   1.9818   1.9825   2.3540   2.3930
     3.4145   3.4152   3.5543   3.5580   4.0863   4.0932   4.3978   4.4605
     5.0648   5.0776   5.6053   5.6081   6.0907   6.1090   6.4136   6.4231
     6.7479   6.7567   7.5572   7.5573   8.2931   8.3344   8.4261   8.4263
     9.0519   9.0565   9.4612   9.4632  10.1014  10.1149  10.5275  10.5288

     occupation numbers 
     1.0000   1.0000   1.0000   1.0000   1.0000   1.0000   1.0000   1.0000
     1.0000   1.0000   1.0000   1.0000   1.0000   1.0000   1.0000   1.0000
     1.0000   1.0000   1.0000   1.0000   1.0000   1.0000   1.0000   1.0000
     1.0000   1.0000   0.0000   0.0000   0.0000   0.0000   0.0000   0.0000
     0.0000   0.0000   0.0000   0.0000   0.0000   0.0000   0.0000   0.0000
     0.0000   0.0000   0.0000   0.0000   0.0000   0.0000   0.0000   0.0000
     0.0000   0.0000   0.0000   0.0000   0.0000   0.0000   0.0000   0.0000
     0.0000   0.0000   0.0000   0.0000   0.0000   0.0000   0.0000   0.0000
     0.0000   0.0000   0.0000   0.0000   0.0000   0.0000   0.0000   0.0000

          k = 0.1667 0.4811 0.0000 (  5876 PWs)   bands (ev):

   -66.7375 -66.7375 -42.6323 -42.6168 -40.2266 -40.2043 -40.0794 -40.0790
   -18.2166 -18.1773 -17.9778 -17.9753 -11.2498 -11.2378 -10.8293 -10.8195
    -9.7686  -9.7651  -9.1526  -9.1344  -8.3282  -8.2638  -7.6511  -7.6410
    -6.4943  -6.3856  -3.7492  -3.7170  -3.2174  -3.0968  -2.5730  -2.5716
    -1.5139  -1.4894   1.1218   1.1471   2.6974   2.7127   2.7447   2.7501
     3.6222   3.6388   3.7436   3.8005   4.4854   4.5069   4.6287   4.6305
     5.1568   5.1607   5.6365   5.6370   6.2157   6.2285   6.9375   6.9435
     7.0076   7.0227   7.7563   7.7609   7.9009   7.9066   8.3689   8.3720
     8.7421   8.7454   9.1127   9.1261   9.4216   9.4286   9.6176   9.6188

     occupation numbers 
     1.0000   1.0000   1.0000   1.0000   1.0000   1.0000   1.0000   1.0000
     1.0000   1.0000   1.0000   1.0000   1.0000   1.0000   1.0000   1.0000
     1.0000   1.0000   1.0000   1.0000   1.0000   1.0000   1.0000   1.0000
     1.0000   1.0000   0.0000   0.0000   0.0000   0.0000   0.0000   0.0000
     0.0000   0.0000   0.0000   0.0000   0.0000   0.0000   0.0000   0.0000
     0.0000   0.0000   0.0000   0.0000   0.0000   0.0000   0.0000   0.0000
     0.0000   0.0000   0.0000   0.0000   0.0000   0.0000   0.0000   0.0000
     0.0000   0.0000   0.0000   0.0000   0.0000   0.0000   0.0000   0.0000
     0.0000   0.0000   0.0000   0.0000   0.0000   0.0000   0.0000   0.0000

          k = 0.1667 0.5774 0.0000 (  5886 PWs)   bands (ev):

   -66.7353 -66.7353 -42.6396 -42.6228 -40.2403 -40.2152 -40.0828 -40.0812
   -18.0797 -18.0356 -17.9215 -17.9190 -11.3253 -11.2995 -11.0183 -11.0107
    -9.8940  -9.8816  -9.0828  -9.0637  -8.3237  -8.2621  -7.8221  -7.8171
    -6.3207  -6.2047  -3.8421  -3.7929  -2.9879  -2.8376  -2.4254  -2.4016
    -1.5644  -1.5163   0.6579   0.6912   3.1758   3.2449   3.2774   3.2844
     3.5418   3.5600   3.6644   3.6744   4.6701   4.6710   4.7366   4.7439
     5.3702   5.3815   5.8962   5.8998   5.9622   5.9716   6.6510   6.6527
     6.9499   6.9541   7.6430   7.6613   7.6770   7.6818   8.0653   8.0775
     8.8015   8.8111   9.2233   9.2295   9.3843   9.3851   9.9064   9.9114

     occupation numbers 
     1.0000   1.0000   1.0000   1.0000   1.0000   1.0000   1.0000   1.0000
     1.0000   1.0000   1.0000   1.0000   1.0000   1.0000   1.0000   1.0000
     1.0000   1.0000   1.0000   1.0000   1.0000   1.0000   1.0000   1.0000
     1.0000   1.0000   0.0000   0.0000   0.0000   0.0000   0.0000   0.0000
     0.0000   0.0000   0.0000   0.0000   0.0000   0.0000   0.0000   0.0000
     0.0000   0.0000   0.0000   0.0000   0.0000   0.0000   0.0000   0.0000
     0.0000   0.0000   0.0000   0.0000   0.0000   0.0000   0.0000   0.0000
     0.0000   0.0000   0.0000   0.0000   0.0000   0.0000   0.0000   0.0000
     0.0000   0.0000   0.0000   0.0000   0.0000   0.0000   0.0000   0.0000

          k = 0.2500 0.4330 0.0000 (  5892 PWs)   bands (ev):

   -66.7375 -66.7375 -42.6327 -42.6148 -40.2194 -40.1910 -40.0924 -40.0894
   -18.2262 -18.1811 -17.9725 -17.9695 -11.0509 -11.0462 -10.8620 -10.8505
    -9.5481  -9.5410  -9.1797  -9.1605  -8.8699  -8.8152  -7.5765  -7.5674
    -6.5184  -6.4084  -3.7798  -3.7602  -3.1890  -3.0696  -2.8186  -2.8107
    -1.3629  -1.3279   1.6324   1.6463   2.4221   2.4855   2.7478   2.7500
     3.4687   3.5021   3.9888   3.9893   4.7818   4.7907   4.8593   4.8660
     5.5812   5.6200   6.0378   6.0405   6.4131   6.4214   6.7198   6.7271
     6.7837   6.7916   7.3005   7.3055   8.1253   8.1275   8.3479   8.3608
     8.6352   8.6362   9.0012   9.0030   9.1527   9.1748   9.3089   9.3136

     occupation numbers 
     1.0000   1.0000   1.0000   1.0000   1.0000   1.0000   1.0000   1.0000
     1.0000   1.0000   1.0000   1.0000   1.0000   1.0000   1.0000   1.0000
     1.0000   1.0000   1.0000   1.0000   1.0000   1.0000   1.0000   1.0000
     1.0000   1.0000   0.0000   0.0000   0.0000   0.0000   0.0000   0.0000
     0.0000   0.0000   0.0000   0.0000   0.0000   0.0000   0.0000   0.0000
     0.0000   0.0000   0.0000   0.0000   0.0000   0.0000   0.0000   0.0000
     0.0000   0.0000   0.0000   0.0000   0.0000   0.0000   0.0000   0.0000
     0.0000   0.0000   0.0000   0.0000   0.0000   0.0000   0.0000   0.0000
     0.0000   0.0000   0.0000   0.0000   0.0000   0.0000   0.0000   0.0000

          k = 0.2500 0.5292 0.0000 (  5912 PWs)   bands (ev):

   -66.7341 -66.7341 -42.6443 -42.6230 -40.2370 -40.1984 -40.1076 -40.0990
   -18.0173 -17.9608 -17.8773 -17.8742 -11.2029 -11.1942 -10.9310 -10.9026
    -9.7597  -9.7517  -9.1743  -9.1295  -8.9851  -8.9453  -7.9053  -7.8997
    -6.2180  -6.0895  -4.0473  -4.0257  -2.7921  -2.7738  -2.6842  -2.5875
    -1.2624  -1.1933   1.1167   1.1720   2.3032   2.3695   3.4101   3.4165
     3.9888   4.0103   4.6395   4.6463   5.2711   5.2759   5.4487   5.4614
     5.8630   5.8750   6.0344   6.0409   6.3561   6.3585   6.6901   6.6949
     7.2163   7.2261   7.4553   7.4589   7.6843   7.6903   7.8635   7.8726
     8.2929   8.2955   8.4494   8.4503   8.9023   8.9047   9.1268   9.1297

     occupation numbers 
     1.0000   1.0000   1.0000   1.0000   1.0000   1.0000   1.0000   1.0000
     1.0000   1.0000   1.0000   1.0000   1.0000   1.0000   1.0000   1.0000
     1.0000   1.0000   1.0000   1.0000   1.0000   1.0000   1.0000   1.0000
     1.0000   1.0000   0.0000   0.0000   0.0000   0.0000   0.0000   0.0000
     0.0000   0.0000   0.0000   0.0000   0.0000   0.0000   0.0000   0.0000
     0.0000   0.0000   0.0000   0.0000   0.0000   0.0000   0.0000   0.0000
     0.0000   0.0000   0.0000   0.0000   0.0000   0.0000   0.0000   0.0000
     0.0000   0.0000   0.0000   0.0000   0.0000   0.0000   0.0000   0.0000
     0.0000   0.0000   0.0000   0.0000   0.0000   0.0000   0.0000   0.0000

          k = 0.3333 0.5774 0.0000 (  5922 PWs)   bands (ev):

   -66.7328 -66.7328 -42.6486 -42.6251 -40.2401 -40.1919 -40.1225 -40.1072
   -17.9432 -17.8802 -17.8375 -17.8345 -11.3487 -11.3411 -10.5382 -10.5025
   -10.0331  -9.9752  -9.5043  -9.4871  -8.8329  -8.7825  -8.1034  -8.0799
    -6.0373  -5.8883  -4.2790  -4.2759  -2.8668  -2.8360  -2.4710  -2.3306
    -1.1260  -1.0435   1.2814   1.4021   1.7443   1.7473   3.7307   3.7386
     4.5410   4.5722   5.2101   5.2165   5.7320   5.7513   5.8184   5.8244
     5.8259   5.8382   6.1533   6.1706   6.8214   6.8288   6.9098   6.9224
     7.2223   7.2492   7.2707   7.2848   7.3337   7.3473   7.4102   7.4139
     7.8769   7.8769   8.6204   8.6278   8.7015   8.7020   8.7580   8.7652

     occupation numbers 
     1.0000   1.0000   1.0000   1.0000   1.0000   1.0000   1.0000   1.0000
     1.0000   1.0000   1.0000   1.0000   1.0000   1.0000   1.0000   1.0000
     1.0000   1.0000   1.0000   1.0000   1.0000   1.0000   1.0000   1.0000
     1.0000   1.0000   0.0000   0.0000   0.0000   0.0000   0.0000   0.0000
     0.0000   0.0000   0.0000   0.0000   0.0000   0.0000   0.0000   0.0000
     0.0000   0.0000   0.0000   0.0000   0.0000   0.0000   0.0000   0.0000
     0.0000   0.0000   0.0000   0.0000   0.0000   0.0000   0.0000   0.0000
     0.0000   0.0000   0.0000   0.0000   0.0000   0.0000   0.0000   0.0000
     0.0000   0.0000   0.0000   0.0000   0.0000   0.0000   0.0000   0.0000

     highest occupied, lowest unoccupied level (ev):    -5.8883   -4.2790

!    total energy              =    -178.24002842 Ry
     estimated scf accuracy    <          6.4E-11 Ry

     The total energy is the sum of the following terms:
     one-electron contribution =   -2307.87784318 Ry
     hartree contribution      =    1148.84096393 Ry
     xc contribution           =     -24.69207956 Ry
     ewald contribution        =    1005.48893038 Ry

     convergence has been achieved in  13 iterations

     Writing all to output data dir ./TMD.save/

     init_run     :      2.08s CPU      2.27s WALL (       1 calls)
     electrons    :    253.95s CPU    260.04s WALL (       1 calls)

     Called by init_run:
     wfcinit      :      2.00s CPU      2.18s WALL (       1 calls)
     wfcinit:wfcr :      1.90s CPU      2.02s WALL (      19 calls)
     potinit      :      0.03s CPU      0.04s WALL (       1 calls)
     hinit0       :      0.02s CPU      0.02s WALL (       1 calls)

     Called by electrons:
     c_bands      :    240.89s CPU    246.23s WALL (      14 calls)
     sum_band     :      8.24s CPU      8.76s WALL (      14 calls)
     v_of_rho     :      0.12s CPU      0.14s WALL (      14 calls)
     v_h          :      0.01s CPU      0.01s WALL (      14 calls)
     v_xc         :      0.11s CPU      0.12s WALL (      14 calls)
     mix_rho      :      4.66s CPU      4.88s WALL (      14 calls)

     Called by c_bands:
     init_us_2    :      0.43s CPU      0.46s WALL (     551 calls)
     init_us_2:cp :      0.43s CPU      0.46s WALL (     551 calls)
     cegterg      :    238.51s CPU    243.78s WALL (     266 calls)

     Called by sum_band:
     sum_band:wei :      0.00s CPU      0.00s WALL (      14 calls)
     sum_band:loo :      8.19s CPU      8.70s WALL (      14 calls)
     sum_band:buf :      0.57s CPU      0.59s WALL (     266 calls)
     sum_band:ini :      0.24s CPU      0.24s WALL (     266 calls)

     Called by *egterg:
     cdiaghg      :     18.69s CPU     18.72s WALL (    2997 calls)
     cegterg:over :     34.04s CPU     34.25s WALL (    2750 calls)
     cegterg:upda :     25.18s CPU     25.28s WALL (    2750 calls)
     cegterg:last :     64.88s CPU     64.91s WALL (    1085 calls)
     h_psi        :     83.89s CPU     88.82s WALL (    3035 calls)
     g_psi        :      0.48s CPU      0.49s WALL (    2750 calls)

     Called by h_psi:
     h_psi:calbec :     11.24s CPU     11.60s WALL (    3035 calls)
     vloc_psi     :     63.42s CPU     67.80s WALL (    3035 calls)
     add_vuspsi   :      7.30s CPU      7.34s WALL (    3035 calls)

     General routines
     calbec       :     11.23s CPU     11.59s WALL (    3035 calls)
     fft          :      0.10s CPU      0.11s WALL (     221 calls)
     ffts         :      1.90s CPU      1.99s WALL (    6050 calls)
     fftw         :     61.66s CPU     65.87s WALL (  369120 calls)

     Parallel routines

     PWSCF        :   4m16.17s CPU   4m22.71s WALL


   This run was terminated on:  10:20:10  11Oct2023            

=------------------------------------------------------------------------------=
   JOB DONE.
=------------------------------------------------------------------------------=
