
     Program BANDS v.7.2 starts on 20Oct2023 at  9:51:30 

     This program is part of the open-source Quantum ESPRESSO suite
     for quantum simulation of materials; please cite
         "P. Giannozzi et al., J. Phys.:Condens. Matter 21 395502 (2009);
         "P. Giannozzi et al., J. Phys.:Condens. Matter 29 465901 (2017);
         "P. Giannozzi et al., J. Chem. Phys. 152 154105 (2020);
          URL http://www.quantum-espresso.org", 
     in publications or presentations arising from this work. More details at
     http://www.quantum-espresso.org/quote

     Parallel version (MPI), running on     6 processors

     MPI processes distributed on     1 nodes
     R & G space division:  proc/nbgrp/npool/nimage =       6
     8945 MiB available memory on the printing compute node when the environment starts


     Reading xml data from directory:

     ./silicon.save/

     IMPORTANT: XC functional enforced from input :
     Exchange-correlation= PBE
                           (   1   4   3   4   0   0   0)
     Any further DFT definition will be discarded
     Please, verify this is what you really want


     Parallelization info
     --------------------
     sticks:   dense  smooth     PW     G-vecs:    dense   smooth      PW
     Min         241     122     35                 6054     2156     347
     Max         243     123     36                 6055     2158     349
     Sum        1453     733    211                36325    12939    2085

     Using Slab Decomposition

     Reading collected, re-writing distributed wavefunctions
     high-symmetry point:  0.5000 0.5000 0.5000   x coordinate   0.0000
     high-symmetry point:  0.0000 0.0000 0.0000   x coordinate   0.8660
     high-symmetry point:  1.0000 0.0000 0.0000   x coordinate   1.8660
     high-symmetry point:  1.0000 0.2500 0.2500   x coordinate   2.2196
     high-symmetry point:  0.0000 0.0000 0.0000   x coordinate   3.2802

     Plottable bands (eV) written to file bands.dat.gnu
     Bands written to file bands.dat

 **************************************************************************

                    xk=(   0.50000,   0.50000,   0.50000  )

     zone border point and non-symmorphic group 
     symmetry decomposition not available

 **************************************************************************

 **************************************************************************

                    xk=(   0.47500,   0.47500,   0.47500  )

     point group C_3v (3m)  
     there are  3 classes
     the character table:

       E     2C3   3s_v 
A_1    1.00  1.00  1.00
A_2    1.00  1.00 -1.00
E      2.00 -1.00  0.00

     the symmetry operations in each class and the name of the first element:

     E        1
                                                                 
     2C3      2    3
                                                                 
     3s_v     4    5    6
                                                                 

     Band symmetry, C_3v (3m)   point group:

     e(  1 -  1) =     -3.45301  eV     1   --> A_1  L_1       
     e(  2 -  2) =     -0.70755  eV     1   --> A_1  L_1       
     e(  3 -  4) =      5.02127  eV     2   --> E    L_3       
     e(  5 -  5) =      7.76145  eV     1   --> A_1  L_1       
     e(  6 -  7) =      9.56121  eV     2   --> E    L_3       
     e(  8 -  8) =     13.95954  eV     1   --> A_1  L_1       

 **************************************************************************

 **************************************************************************

                    xk=(   0.45000,   0.45000,   0.45000  )

     Band symmetry, C_3v (3m)   point group:

     e(  1 -  1) =     -3.55190  eV     1   --> A_1  L_1       
     e(  2 -  2) =     -0.56228  eV     1   --> A_1  L_1       
     e(  3 -  4) =      5.03474  eV     2   --> E    L_3       
     e(  5 -  5) =      7.77691  eV     1   --> A_1  L_1       
     e(  6 -  7) =      9.57651  eV     2   --> E    L_3       
     e(  8 -  8) =     13.98294  eV     1   --> A_1  L_1       

 **************************************************************************

 **************************************************************************

                    xk=(   0.42500,   0.42500,   0.42500  )

     Band symmetry, C_3v (3m)   point group:

     e(  1 -  1) =     -3.69678  eV     1   --> A_1  L_1       
     e(  2 -  2) =     -0.34022  eV     1   --> A_1  L_1       
     e(  3 -  4) =      5.05718  eV     2   --> E    L_3       
     e(  5 -  5) =      7.80260  eV     1   --> A_1  L_1       
     e(  6 -  7) =      9.60076  eV     2   --> E    L_3       
     e(  8 -  8) =     14.01945  eV     1   --> A_1  L_1       

 **************************************************************************

 **************************************************************************

                    xk=(   0.40000,   0.40000,   0.40000  )

     Band symmetry, C_3v (3m)   point group:

     e(  1 -  1) =     -3.86958  eV     1   --> A_1  L_1       
     e(  2 -  2) =     -0.05964  eV     1   --> A_1  L_1       
     e(  3 -  4) =      5.08855  eV     2   --> E    L_3       
     e(  5 -  5) =      7.83840  eV     1   --> A_1  L_1       
     e(  6 -  7) =      9.63197  eV     2   --> E    L_3       
     e(  8 -  8) =     14.06400  eV     1   --> A_1  L_1       

 **************************************************************************

 **************************************************************************

                    xk=(   0.37500,   0.37500,   0.37500  )

     Band symmetry, C_3v (3m)   point group:

     e(  1 -  1) =     -4.05621  eV     1   --> A_1  L_1       
     e(  2 -  2) =      0.26510  eV     1   --> A_1  L_1       
     e(  3 -  4) =      5.12879  eV     2   --> E    L_3       
     e(  5 -  5) =      7.88413  eV     1   --> A_1  L_1       
     e(  6 -  7) =      9.66720  eV     2   --> E    L_3       
     e(  8 -  8) =     14.10571  eV     1   --> A_1  L_1       

 **************************************************************************

 **************************************************************************

                    xk=(   0.35000,   0.35000,   0.35000  )

     Band symmetry, C_3v (3m)   point group:

     e(  1 -  1) =     -4.24695  eV     1   --> A_1  L_1       
     e(  2 -  2) =      0.62392  eV     1   --> A_1  L_1       
     e(  3 -  4) =      5.17779  eV     2   --> E    L_3       
     e(  5 -  5) =      7.93952  eV     1   --> A_1  L_1       
     e(  6 -  7) =      9.70233  eV     2   --> E    L_3       
     e(  8 -  8) =     14.12007  eV     1   --> A_1  L_1       

 **************************************************************************

 **************************************************************************

                    xk=(   0.32500,   0.32500,   0.32500  )

     Band symmetry, C_3v (3m)   point group:

     e(  1 -  1) =     -4.43538  eV     1   --> A_1  L_1       
     e(  2 -  2) =      1.00988  eV     1   --> A_1  L_1       
     e(  3 -  4) =      5.23538  eV     2   --> E    L_3       
     e(  5 -  5) =      8.00417  eV     1   --> A_1  L_1       
     e(  6 -  7) =      9.73206  eV     2   --> E    L_3       
     e(  8 -  8) =     14.05647  eV     1   --> A_1  L_1       

 **************************************************************************

 **************************************************************************

                    xk=(   0.30000,   0.30000,   0.30000  )

     Band symmetry, C_3v (3m)   point group:

     e(  1 -  1) =     -4.61722  eV     1   --> A_1  L_1       
     e(  2 -  2) =      1.41806  eV     1   --> A_1  L_1       
     e(  3 -  4) =      5.30130  eV     2   --> E    L_3       
     e(  5 -  5) =      8.07754  eV     1   --> A_1  L_1       
     e(  6 -  7) =      9.74989  eV     2   --> E    L_3       
     e(  8 -  8) =     13.81987  eV     1   -->   ?

 **************************************************************************

 **************************************************************************

                    xk=(   0.27500,   0.27500,   0.27500  )

     Band symmetry, C_3v (3m)   point group:

     e(  1 -  1) =     -4.78961  eV     1   --> A_1  L_1       
     e(  2 -  2) =      1.84476  eV     1   --> A_1  L_1       
     e(  3 -  4) =      5.37514  eV     2   --> E    L_3       
     e(  5 -  5) =      8.15888  eV     1   --> A_1  L_1       
     e(  6 -  7) =      9.74872  eV     2   --> E    L_3       
     e(  8 -  8) =     13.53368  eV     1   --> A_1  L_1       

 **************************************************************************

 **************************************************************************

                    xk=(   0.25000,   0.25000,   0.25000  )

     Band symmetry, C_3v (3m)   point group:

     e(  1 -  1) =     -4.95057  eV     1   --> A_1  L_1       
     e(  2 -  2) =      2.28692  eV     1   --> A_1  L_1       
     e(  3 -  4) =      5.45630  eV     2   --> E    L_3       
     e(  5 -  5) =      8.24714  eV     1   --> A_1  L_1       
     e(  6 -  7) =      9.72205  eV     2   --> E    L_3       
     e(  8 -  8) =     13.14082  eV     1   --> A_1  L_1       

 **************************************************************************

 **************************************************************************

                    xk=(   0.22500,   0.22500,   0.22500  )

     Band symmetry, C_3v (3m)   point group:

     e(  1 -  1) =     -5.09870  eV     1   --> A_1  L_1       
     e(  2 -  2) =      2.74170  eV     1   --> A_1  L_1       
     e(  3 -  4) =      5.54397  eV     2   --> E    L_3       
     e(  5 -  5) =      8.34092  eV     1   --> A_1  L_1       
     e(  6 -  7) =      9.66571  eV     2   --> E    L_3       
     e(  8 -  8) =     12.71527  eV     1   --> A_1  L_1       

 **************************************************************************

 **************************************************************************

                    xk=(   0.20000,   0.20000,   0.20000  )

     Band symmetry, C_3v (3m)   point group:

     e(  1 -  1) =     -5.23300  eV     1   --> A_1  L_1       
     e(  2 -  2) =      3.20615  eV     1   --> A_1  L_1       
     e(  3 -  4) =      5.63694  eV     2   --> E    L_3       
     e(  5 -  5) =      8.43827  eV     1   --> A_1  L_1       
     e(  6 -  7) =      9.57957  eV     2   --> E    L_3       
     e(  8 -  8) =     12.27381  eV     1   --> A_1  L_1       

 **************************************************************************

 **************************************************************************

                    xk=(   0.17500,   0.17500,   0.17500  )

     Band symmetry, C_3v (3m)   point group:

     e(  1 -  1) =     -5.35273  eV     1   --> A_1  L_1       
     e(  2 -  2) =      3.67685  eV     1   --> A_1  L_1       
     e(  3 -  4) =      5.73358  eV     2   --> E    L_3       
     e(  5 -  5) =      8.53650  eV     1   --> A_1  L_1       
     e(  6 -  7) =      9.46804  eV     2   --> E    L_3       
     e(  8 -  8) =     11.82497  eV     1   --> A_1  L_1       

 **************************************************************************

 **************************************************************************

                    xk=(   0.15000,   0.15000,   0.15000  )

     Band symmetry, C_3v (3m)   point group:

     e(  1 -  1) =     -5.45734  eV     1   --> A_1  L_1       
     e(  2 -  2) =      4.14934  eV     1   --> A_1  L_1       
     e(  3 -  4) =      5.83162  eV     2   --> E    L_3       
     e(  5 -  5) =      8.63192  eV     1   --> A_1  L_1       
     e(  6 -  7) =      9.33920  eV     2   --> E    L_3       
     e(  8 -  8) =     11.37523  eV     1   --> A_1  L_1       

 **************************************************************************

 **************************************************************************

                    xk=(   0.12500,   0.12500,   0.12500  )

     Band symmetry, C_3v (3m)   point group:

     e(  1 -  1) =     -5.54643  eV     1   --> A_1  L_1       
     e(  2 -  2) =      4.61730  eV     1   --> A_1  L_1       
     e(  3 -  4) =      5.92801  eV     2   --> E    L_3       
     e(  5 -  5) =      8.71924  eV     1   --> A_1  L_1       
     e(  6 -  7) =      9.20314  eV     2   --> E    L_3       
     e(  8 -  8) =     10.93255  eV     1   --> A_1  L_1       

 **************************************************************************

 **************************************************************************

                    xk=(   0.10000,   0.10000,   0.10000  )

     Band symmetry, C_3v (3m)   point group:

     e(  1 -  1) =     -5.61969  eV     1   --> A_1  L_1       
     e(  2 -  2) =      5.07102  eV     1   --> A_1  L_1       
     e(  3 -  4) =      6.01875  eV     2   --> E    L_3       
     e(  5 -  5) =      8.79079  eV     1   --> A_1  L_1       
     e(  6 -  7) =      9.07072  eV     2   --> E    L_3       
     e(  8 -  8) =     10.50972  eV     1   --> A_1  L_1       

 **************************************************************************

 **************************************************************************

                    xk=(   0.07500,   0.07500,   0.07500  )

     Band symmetry, C_3v (3m)   point group:

     e(  1 -  1) =     -5.67687  eV     1   --> A_1  L_1       
     e(  2 -  2) =      5.49441  eV     1   --> A_1  L_1       
     e(  3 -  4) =      6.09881  eV     2   --> E    L_3       
     e(  5 -  5) =      8.83514  eV     1   --> A_1  L_1       
     e(  6 -  7) =      8.95263  eV     2   --> E    L_3       
     e(  8 -  8) =     10.12921  eV     1   --> A_1  L_1       

 **************************************************************************

 **************************************************************************

                    xk=(   0.05000,   0.05000,   0.05000  )

     Band symmetry, C_3v (3m)   point group:

     e(  1 -  1) =     -5.71783  eV     1   --> A_1  L_1       
     e(  2 -  2) =      5.85962  eV     1   --> A_1  L_1       
     e(  3 -  4) =      6.16236  eV     2   --> E    L_3       
     e(  5 -  5) =      8.83842  eV     1   --> A_1  L_1       
     e(  6 -  7) =      8.85901  eV     2   --> E    L_3       
     e(  8 -  8) =      9.82769  eV     1   --> A_1  L_1       

 **************************************************************************

 **************************************************************************

                    xk=(   0.02500,   0.02500,   0.02500  )

     Band symmetry, C_3v (3m)   point group:

     e(  1 -  1) =     -5.74245  eV     1   --> A_1  L_1       
     e(  2 -  2) =      6.12047  eV     1   --> A_1  L_1       
     e(  3 -  4) =      6.20354  eV     2   --> E    L_3       
     e(  5 -  6) =      8.79866  eV     2   --> E    L_3       
     e(  7 -  7) =      8.80301  eV     1   --> A_1  L_1       
     e(  8 -  8) =      9.64453  eV     1   --> A_1  L_1       

 **************************************************************************

 **************************************************************************

                    xk=(   0.00000,   0.00000,   0.00000  )

     point group O_h (m-3m) 
     there are 10 classes
     the character table:

       E     8C3   3C2   6C4   6C2'  i     8S6   3s_h  6S4   6s_d 
A_1g   1.00  1.00  1.00  1.00  1.00  1.00  1.00  1.00  1.00  1.00
A_2g   1.00  1.00  1.00 -1.00 -1.00  1.00  1.00  1.00 -1.00 -1.00
E_g    2.00 -1.00  2.00  0.00  0.00  2.00 -1.00  2.00  0.00  0.00
T_1g   3.00  0.00 -1.00  1.00 -1.00  3.00  0.00 -1.00  1.00 -1.00
T_2g   3.00  0.00 -1.00 -1.00  1.00  3.00  0.00 -1.00 -1.00  1.00
A_1u   1.00  1.00  1.00  1.00  1.00 -1.00 -1.00 -1.00 -1.00 -1.00
A_2u   1.00  1.00  1.00 -1.00 -1.00 -1.00 -1.00 -1.00  1.00  1.00
E_u    2.00 -1.00  2.00  0.00  0.00 -2.00  1.00 -2.00  0.00  0.00
T_1u   3.00  0.00 -1.00  1.00 -1.00 -3.00  0.00  1.00 -1.00  1.00
T_2u   3.00  0.00 -1.00 -1.00  1.00 -3.00  0.00  1.00  1.00 -1.00

     the symmetry operations in each class and the name of the first element:

     E        1
                                                                 
     8C3     17   19   20   18   24   21   22   23
                                                                 
     3C2      2    4    3
                                                                 
     6C4      7    8   15   16   12   11
                                                                 
     6C2'     5    6   14   13   10    9
                                                                 
     i       25
                                                                 
     8S6     41   43   44   42   48   45   46   47
                                                                 
     3s_h    26   28   27
                                                                 
     6S4     31   32   39   40   36   35
                                                                 
     6s_d    29   30   38   37   34   33
                                                                 

     Band symmetry, O_h (m-3m)  point group:

     e(  1 -  1) =     -5.75067  eV     1   --> A_1g G_1   G_1+
     e(  2 -  4) =      6.21785  eV     3   --> T_2g G_25' G_5+
     e(  5 -  7) =      8.77778  eV     3   --> T_1u G_15  G_4-
     e(  8 -  8) =      9.58686  eV     1   --> A_2u G_2'  G_2-

 **************************************************************************

 **************************************************************************

                    xk=(   0.03333,   0.00000,   0.00000  )

     point group C_4v (4mm) 
     there are  5 classes
     the character table:

       E     2C4   C2    2s_v  2s_d 
A_1    1.00  1.00  1.00  1.00  1.00
A_2    1.00  1.00  1.00 -1.00 -1.00
B_1    1.00 -1.00  1.00  1.00 -1.00
B_2    1.00 -1.00  1.00 -1.00  1.00
E      2.00  0.00 -2.00  0.00  0.00

     the symmetry operations in each class and the name of the first element:

     E        1
                                                                 
     2C4      3    4
                                                                 
     C2       2
                                                                 
     2s_v     5    6
                                                                 
     2s_d     7    8
                                                                 

     Band symmetry, C_4v (4mm)  point group:

     e(  1 -  1) =     -5.74580  eV     1   --> A_1  G_1 D_1   
     e(  2 -  2) =      6.18436  eV     1   --> B_2  G_4 D_2'  
     e(  3 -  4) =      6.19662  eV     2   --> E    G_5 D_5   
     e(  5 -  5) =      8.76566  eV     1   --> A_1  G_1 D_1   
     e(  6 -  7) =      8.80501  eV     2   --> E    G_5 D_5   
     e(  8 -  8) =      9.61968  eV     1   --> B_2  G_4 D_2'  

 **************************************************************************

 **************************************************************************

                    xk=(   0.06667,   0.00000,   0.00000  )

     Band symmetry, C_4v (4mm)  point group:

     e(  1 -  1) =     -5.73120  eV     1   --> A_1  G_1 D_1   
     e(  2 -  2) =      6.08778  eV     1   --> B_2  G_4 D_2'  
     e(  3 -  4) =      6.13559  eV     2   --> E    G_5 D_5   
     e(  5 -  5) =      8.72996  eV     1   --> A_1  G_1 D_1   
     e(  6 -  7) =      8.88402  eV     2   --> E    G_5 D_5   
     e(  8 -  8) =      9.71363  eV     1   --> B_2  G_4 D_2'  

 **************************************************************************

 **************************************************************************

                    xk=(   0.10000,   0.00000,   0.00000  )

     Band symmetry, C_4v (4mm)  point group:

     e(  1 -  1) =     -5.70687  eV     1   --> A_1  G_1 D_1   
     e(  2 -  2) =      5.93790  eV     1   --> B_2  G_4 D_2'  
     e(  3 -  4) =      6.04149  eV     2   --> E    G_5 D_5   
     e(  5 -  5) =      8.67254  eV     1   --> A_1  G_1 D_1   
     e(  6 -  7) =      9.00806  eV     2   --> E    G_5 D_5   
     e(  8 -  8) =      9.85693  eV     1   --> B_2  G_4 D_2'  

 **************************************************************************

 **************************************************************************

                    xk=(   0.13333,   0.00000,   0.00000  )

     Band symmetry, C_4v (4mm)  point group:

     e(  1 -  1) =     -5.67284  eV     1   --> A_1  G_1 D_1   
     e(  2 -  2) =      5.74644  eV     1   --> B_2  G_4 D_2'  
     e(  3 -  4) =      5.92257  eV     2   --> E    G_5 D_5   
     e(  5 -  5) =      8.59614  eV     1   --> A_1  G_1 D_1   
     e(  6 -  7) =      9.16881  eV     2   --> E    G_5 D_5   
     e(  8 -  8) =     10.03382  eV     1   --> B_2  G_4 D_2'  

 **************************************************************************

 **************************************************************************

                    xk=(   0.16667,   0.00000,   0.00000  )

     Band symmetry, C_4v (4mm)  point group:

     e(  1 -  1) =     -5.62912  eV     1   --> A_1  G_1 D_1   
     e(  2 -  2) =      5.52413  eV     1   --> B_2  G_4 D_2'  
     e(  3 -  4) =      5.78651  eV     2   --> E    G_5 D_5   
     e(  5 -  5) =      8.50401  eV     1   --> A_1  G_1 D_1   
     e(  6 -  7) =      9.35848  eV     2   --> E    G_5 D_5   
     e(  8 -  8) =     10.22628  eV     1   --> B_2  G_4 D_2'  

 **************************************************************************

 **************************************************************************

                    xk=(   0.20000,   0.00000,   0.00000  )

     Band symmetry, C_4v (4mm)  point group:

     e(  1 -  1) =     -5.57573  eV     1   --> A_1  G_1 D_1   
     e(  2 -  2) =      5.27946  eV     1   --> B_2  G_4 D_2'  
     e(  3 -  4) =      5.63960  eV     2   --> E    G_5 D_5   
     e(  5 -  5) =      8.39957  eV     1   --> A_1  G_1 D_1   
     e(  6 -  7) =      9.57067  eV     2   --> E    G_5 D_5   
     e(  8 -  8) =     10.41290  eV     1   --> B_2  G_4 D_2'  

 **************************************************************************

 **************************************************************************

                    xk=(   0.23333,   0.00000,   0.00000  )

     Band symmetry, C_4v (4mm)  point group:

     e(  1 -  1) =     -5.51272  eV     1   --> A_1  G_1 D_1   
     e(  2 -  2) =      5.01874  eV     1   --> B_2  G_4 D_2'  
     e(  3 -  4) =      5.48661  eV     2   --> E    G_5 D_5   
     e(  5 -  5) =      8.28613  eV     1   --> A_1  G_1 D_1   
     e(  6 -  7) =      9.80050  eV     2   --> E    G_5 D_5   
     e(  8 -  8) =     10.56561  eV     1   --> B_2  G_4 D_2'  

 **************************************************************************

 **************************************************************************

                    xk=(   0.26667,   0.00000,   0.00000  )

     Band symmetry, C_4v (4mm)  point group:

     e(  1 -  1) =     -5.44012  eV     1   --> A_1  G_1 D_1   
     e(  2 -  2) =      4.74645  eV     1   --> B_2  G_4 D_2'  
     e(  3 -  4) =      5.33108  eV     2   --> E    G_5 D_5   
     e(  5 -  5) =      8.16670  eV     1   --> A_1  G_1 D_1   
     e(  6 -  7) =     10.04427  eV     2   --> E    G_5 D_5   
     e(  8 -  8) =     10.64913  eV     1   --> B_2  G_4 D_2'  

 **************************************************************************

 **************************************************************************

                    xk=(   0.30000,   0.00000,   0.00000  )

     Band symmetry, C_4v (4mm)  point group:

     e(  1 -  1) =     -5.35797  eV     1   --> A_1  G_1 D_1   
     e(  2 -  2) =      4.46581  eV     1   --> B_2  G_4 D_2'  
     e(  3 -  4) =      5.17560  eV     2   --> E    G_5 D_5   
     e(  5 -  5) =      8.04398  eV     1   --> A_1  G_1 D_1   
     e(  6 -  7) =     10.29926  eV     2   --> E    G_5 D_5   
     e(  8 -  8) =     10.63420  eV     1   --> B_2  G_4 D_2'  

 **************************************************************************

 **************************************************************************

                    xk=(   0.33333,   0.00000,   0.00000  )

     Band symmetry, C_4v (4mm)  point group:

     e(  1 -  1) =     -5.26634  eV     1   --> A_1  G_1 D_1   
     e(  2 -  2) =      4.17909  eV     1   --> B_2  G_4 D_2'  
     e(  3 -  4) =      5.02210  eV     2   --> E    G_5 D_5   
     e(  5 -  5) =      7.92026  eV     1   --> A_1  G_1 D_1   
     e(  6 -  6) =     10.52061  eV     1   --> B_2  G_4 D_2'  
     e(  7 -  8) =     10.56340  eV     2   --> E    G_5 D_5   

 **************************************************************************

 **************************************************************************

                    xk=(   0.36667,   0.00000,   0.00000  )

     Band symmetry, C_4v (4mm)  point group:

     e(  1 -  1) =     -5.16527  eV     1   --> A_1  G_1 D_1   
     e(  2 -  2) =      3.88791  eV     1   --> B_2  G_4 D_2'  
     e(  3 -  4) =      4.87200  eV     2   --> E    G_5 D_5   
     e(  5 -  5) =      7.79751  eV     1   --> A_1  G_1 D_1   
     e(  6 -  6) =     10.33520  eV     1   --> B_2  G_4 D_2'  
     e(  7 -  8) =     10.83510  eV     2   --> E    G_5 D_5   

 **************************************************************************

 **************************************************************************

                    xk=(   0.40000,   0.00000,   0.00000  )

     Band symmetry, C_4v (4mm)  point group:

     e(  1 -  1) =     -5.05485  eV     1   --> A_1  G_1 D_1   
     e(  2 -  2) =      3.59352  eV     1   --> B_2  G_4 D_2'  
     e(  3 -  4) =      4.72641  eV     2   --> E    G_5 D_5   
     e(  5 -  5) =      7.67741  eV     1   --> A_1  G_1 D_1   
     e(  6 -  6) =     10.10807  eV     1   --> B_2  G_4 D_2'  
     e(  7 -  8) =     11.11315  eV     2   --> E    G_5 D_5   

 **************************************************************************

 **************************************************************************

                    xk=(   0.43333,   0.00000,   0.00000  )

     Band symmetry, C_4v (4mm)  point group:

     e(  1 -  1) =     -4.93513  eV     1   --> A_1  G_1 D_1   
     e(  2 -  2) =      3.29680  eV     1   --> B_2  G_4 D_2'  
     e(  3 -  4) =      4.58616  eV     2   --> E    G_5 D_5   
     e(  5 -  5) =      7.56135  eV     1   --> A_1  G_1 D_1   
     e(  6 -  6) =      9.86051  eV     1   --> B_2  G_4 D_2'  
     e(  7 -  8) =     11.39659  eV     2   --> E    G_5 D_5   

 **************************************************************************

 **************************************************************************

                    xk=(   0.46667,   0.00000,   0.00000  )

     Band symmetry, C_4v (4mm)  point group:

     e(  1 -  1) =     -4.80622  eV     1   --> A_1  G_1 D_1   
     e(  2 -  2) =      2.99848  eV     1   --> B_2  G_4 D_2'  
     e(  3 -  4) =      4.45191  eV     2   --> E    G_5 D_5   
     e(  5 -  5) =      7.45053  eV     1   --> A_1  G_1 D_1   
     e(  6 -  6) =      9.60559  eV     1   --> B_2  G_4 D_2'  
     e(  7 -  8) =     11.68466  eV     2   --> E    G_5 D_5   

 **************************************************************************

 **************************************************************************

                    xk=(   0.50000,   0.00000,   0.00000  )

     Band symmetry, C_4v (4mm)  point group:

     e(  1 -  1) =     -4.66820  eV     1   --> A_1  G_1 D_1   
     e(  2 -  2) =      2.69915  eV     1   --> B_2  G_4 D_2'  
     e(  3 -  4) =      4.32419  eV     2   --> E    G_5 D_5   
     e(  5 -  5) =      7.34594  eV     1   --> A_1  G_1 D_1   
     e(  6 -  6) =      9.35119  eV     1   --> B_2  G_4 D_2'  
     e(  7 -  8) =     11.97676  eV     2   --> E    G_5 D_5   

 **************************************************************************

 **************************************************************************

                    xk=(   0.53333,   0.00000,   0.00000  )

     Band symmetry, C_4v (4mm)  point group:

     e(  1 -  1) =     -4.52118  eV     1   --> A_1  G_1 D_1   
     e(  2 -  2) =      2.39933  eV     1   --> B_2  G_4 D_2'  
     e(  3 -  4) =      4.20343  eV     2   --> E    G_5 D_5   
     e(  5 -  5) =      7.24845  eV     1   --> A_1  G_1 D_1   
     e(  6 -  6) =      9.10220  eV     1   --> B_2  G_4 D_2'  
     e(  7 -  8) =     12.27243  eV     2   --> E    G_5 D_5   

 **************************************************************************

 **************************************************************************

                    xk=(   0.56667,   0.00000,   0.00000  )

     Band symmetry, C_4v (4mm)  point group:

     e(  1 -  1) =     -4.36526  eV     1   --> A_1  G_1 D_1   
     e(  2 -  2) =      2.09948  eV     1   --> B_2  G_4 D_2'  
     e(  3 -  4) =      4.08995  eV     2   --> E    G_5 D_5   
     e(  5 -  5) =      7.15879  eV     1   --> A_1  G_1 D_1   
     e(  6 -  6) =      8.86174  eV     1   --> B_2  G_4 D_2'  
     e(  7 -  8) =     12.57130  eV     2   --> E    G_5 D_5   

 **************************************************************************

 **************************************************************************

                    xk=(   0.60000,   0.00000,   0.00000  )

     Band symmetry, C_4v (4mm)  point group:

     e(  1 -  1) =     -4.20058  eV     1   --> A_1  G_1 D_1   
     e(  2 -  2) =      1.80004  eV     1   --> B_2  G_4 D_2'  
     e(  3 -  4) =      3.98405  eV     2   --> E    G_5 D_5   
     e(  5 -  5) =      7.07762  eV     1   --> A_1  G_1 D_1   
     e(  6 -  6) =      8.63187  eV     1   --> B_2  G_4 D_2'  
     e(  7 -  8) =     12.87307  eV     2   --> E    G_5 D_5   

 **************************************************************************

 **************************************************************************

                    xk=(   0.63333,   0.00000,   0.00000  )

     Band symmetry, C_4v (4mm)  point group:

     e(  1 -  1) =     -4.02727  eV     1   --> A_1  G_1 D_1   
     e(  2 -  2) =      1.50144  eV     1   --> B_2  G_4 D_2'  
     e(  3 -  4) =      3.88596  eV     2   --> E    G_5 D_5   
     e(  5 -  5) =      7.00549  eV     1   --> A_1  G_1 D_1   
     e(  6 -  6) =      8.41399  eV     1   --> B_2  G_4 D_2'  
     e(  7 -  8) =     13.17753  eV     2   --> E    G_5 D_5   

 **************************************************************************

 **************************************************************************

                    xk=(   0.66667,   0.00000,   0.00000  )

     Band symmetry, C_4v (4mm)  point group:

     e(  1 -  1) =     -3.84547  eV     1   --> A_1  G_1 D_1   
     e(  2 -  2) =      1.20411  eV     1   --> B_2  G_4 D_2'  
     e(  3 -  4) =      3.79588  eV     2   --> E    G_5 D_5   
     e(  5 -  5) =      6.94291  eV     1   --> A_1  G_1 D_1   
     e(  6 -  6) =      8.20901  eV     1   --> B_2  G_4 D_2'  
     e(  7 -  8) =     13.48447  eV     2   --> E    G_5 D_5   

 **************************************************************************

 **************************************************************************

                    xk=(   0.70000,   0.00000,   0.00000  )

     Band symmetry, C_4v (4mm)  point group:

     e(  1 -  1) =     -3.65536  eV     1   --> A_1  G_1 D_1   
     e(  2 -  2) =      0.90850  eV     1   --> B_2  G_4 D_2'  
     e(  3 -  4) =      3.71397  eV     2   --> E    G_5 D_5   
     e(  5 -  5) =      6.89032  eV     1   --> A_1  G_1 D_1   
     e(  6 -  6) =      8.01757  eV     1   --> B_2  G_4 D_2'  
     e(  7 -  8) =     13.79371  eV     2   --> E    G_5 D_5   

 **************************************************************************

 **************************************************************************

                    xk=(   0.73333,   0.00000,   0.00000  )

     Band symmetry, C_4v (4mm)  point group:

     e(  1 -  1) =     -3.45709  eV     1   --> A_1  G_1 D_1   
     e(  2 -  2) =      0.61503  eV     1   --> B_2  G_4 D_2'  
     e(  3 -  4) =      3.64036  eV     2   --> E    G_5 D_5   
     e(  5 -  5) =      6.84813  eV     1   --> A_1  G_1 D_1   
     e(  6 -  6) =      7.84002  eV     1   --> B_2  G_4 D_2'  
     e(  7 -  8) =     14.10507  eV     2   --> E    G_5 D_5   

 **************************************************************************

 **************************************************************************

                    xk=(   0.76667,   0.00000,   0.00000  )

     Band symmetry, C_4v (4mm)  point group:

     e(  1 -  1) =     -3.25087  eV     1   --> A_1  G_1 D_1   
     e(  2 -  2) =      0.32414  eV     1   --> B_2  G_4 D_2'  
     e(  3 -  4) =      3.57518  eV     2   --> E    G_5 D_5   
     e(  5 -  5) =      6.81673  eV     1   --> A_1  G_1 D_1   
     e(  6 -  6) =      7.67660  eV     1   --> B_2  G_4 D_2'  
     e(  7 -  8) =     14.41820  eV     2   --> E    G_5 D_5   

 **************************************************************************

 **************************************************************************

                    xk=(   0.80000,   0.00000,   0.00000  )

     Band symmetry, C_4v (4mm)  point group:

     e(  1 -  1) =     -3.03690  eV     1   --> A_1  G_1 D_1   
     e(  2 -  2) =      0.03627  eV     1   --> B_2  G_4 D_2'  
     e(  3 -  4) =      3.51851  eV     2   --> E    G_5 D_5   
     e(  5 -  5) =      6.79645  eV     1   --> A_1  G_1 D_1   
     e(  6 -  6) =      7.52738  eV     1   --> B_2  G_4 D_2'  
     e(  7 -  8) =     14.73263  eV     2   --> E    G_5 D_5   

 **************************************************************************

 **************************************************************************

                    xk=(   0.83333,   0.00000,   0.00000  )

     Band symmetry, C_4v (4mm)  point group:

     e(  1 -  1) =     -2.81540  eV     1   --> A_1  G_1 D_1   
     e(  2 -  2) =     -0.24815  eV     1   --> B_2  G_4 D_2'  
     e(  3 -  4) =      3.47044  eV     2   --> E    G_5 D_5   
     e(  5 -  5) =      6.78764  eV     1   --> A_1  G_1 D_1   
     e(  6 -  6) =      7.39236  eV     1   --> B_2  G_4 D_2'  
     e(  7 -  8) =     15.04747  eV     2   --> E    G_5 D_5   

 **************************************************************************

 **************************************************************************

                    xk=(   0.86667,   0.00000,   0.00000  )

     Band symmetry, C_4v (4mm)  point group:

     e(  1 -  1) =     -2.58660  eV     1   --> A_1  G_1 D_1   
     e(  2 -  2) =     -0.52869  eV     1   --> B_2  G_4 D_2'  
     e(  3 -  4) =      3.43103  eV     2   --> E    G_5 D_5   
     e(  5 -  5) =      6.79059  eV     1   --> A_1  G_1 D_1   
     e(  6 -  6) =      7.27146  eV     1   --> B_2  G_4 D_2'  
     e(  7 -  8) =     15.36094  eV     2   --> E    G_5 D_5   

 **************************************************************************

 **************************************************************************

                    xk=(   0.90000,   0.00000,   0.00000  )

     Band symmetry, C_4v (4mm)  point group:

     e(  1 -  1) =     -2.35078  eV     1   --> A_1  G_1 D_1   
     e(  2 -  2) =     -0.80494  eV     1   --> B_2  G_4 D_2'  
     e(  3 -  4) =      3.40032  eV     2   --> E    G_5 D_5   
     e(  5 -  5) =      6.80562  eV     1   --> A_1  G_1 D_1   
     e(  6 -  6) =      7.16456  eV     1   --> B_2  G_4 D_2'  
     e(  7 -  8) =     15.66921  eV     2   --> E    G_5 D_5   

 **************************************************************************

 **************************************************************************

                    xk=(   0.93333,   0.00000,   0.00000  )

     Band symmetry, C_4v (4mm)  point group:

     e(  1 -  1) =     -2.10819  eV     1   --> A_1  G_1 D_1   
     e(  2 -  2) =     -1.07649  eV     1   --> B_2  G_4 D_2'  
     e(  3 -  4) =      3.37836  eV     2   --> E    G_5 D_5   
     e(  5 -  5) =      6.83300  eV     1   --> A_1  G_1 D_1   
     e(  6 -  6) =      7.07147  eV     1   --> B_2  G_4 D_2'  
     e(  7 -  8) =     15.96255  eV     2   --> E    G_5 D_5   

 **************************************************************************

 **************************************************************************

                    xk=(   0.96667,   0.00000,   0.00000  )

     Band symmetry, C_4v (4mm)  point group:

     e(  1 -  1) =     -1.85915  eV     1   --> A_1  G_1 D_1   
     e(  2 -  2) =     -1.34295  eV     1   --> B_2  G_4 D_2'  
     e(  3 -  4) =      3.36518  eV     2   --> E    G_5 D_5   
     e(  5 -  5) =      6.87302  eV     1   --> A_1  G_1 D_1   
     e(  6 -  6) =      6.99200  eV     1   --> B_2  G_4 D_2'  
     e(  7 -  8) =     16.21142  eV     2   --> E    G_5 D_5   

 **************************************************************************

 **************************************************************************

                    xk=(   1.00000,   0.00000,   0.00000  )

     zone border point and non-symmorphic group 
     symmetry decomposition not available

 **************************************************************************

 **************************************************************************

                    xk=(   1.00000,   0.02500,   0.02500  )

     zone border point and non-symmorphic group 
     symmetry decomposition not available

 **************************************************************************

 **************************************************************************

                    xk=(   1.00000,   0.05000,   0.05000  )

     zone border point and non-symmorphic group 
     symmetry decomposition not available

 **************************************************************************

 **************************************************************************

                    xk=(   1.00000,   0.07500,   0.07500  )

     zone border point and non-symmorphic group 
     symmetry decomposition not available

 **************************************************************************

 **************************************************************************

                    xk=(   1.00000,   0.10000,   0.10000  )

     zone border point and non-symmorphic group 
     symmetry decomposition not available

 **************************************************************************

 **************************************************************************

                    xk=(   1.00000,   0.12500,   0.12500  )

     zone border point and non-symmorphic group 
     symmetry decomposition not available

 **************************************************************************

 **************************************************************************

                    xk=(   1.00000,   0.15000,   0.15000  )

     zone border point and non-symmorphic group 
     symmetry decomposition not available

 **************************************************************************

 **************************************************************************

                    xk=(   1.00000,   0.17500,   0.17500  )

     zone border point and non-symmorphic group 
     symmetry decomposition not available

 **************************************************************************

 **************************************************************************

                    xk=(   1.00000,   0.20000,   0.20000  )

     zone border point and non-symmorphic group 
     symmetry decomposition not available

 **************************************************************************

 **************************************************************************

                    xk=(   1.00000,   0.22500,   0.22500  )

     zone border point and non-symmorphic group 
     symmetry decomposition not available

 **************************************************************************

 **************************************************************************

                    xk=(   1.00000,   0.25000,   0.25000  )

     zone border point and non-symmorphic group 
     symmetry decomposition not available

 **************************************************************************

 **************************************************************************

                    xk=(   0.96667,   0.24167,   0.24167  )

     point group C_s (m)    
     there are  2 classes
     the character table:

       E     s    
A'     1.00  1.00
A''    1.00 -1.00

     the symmetry operations in each class and the name of the first element:

     E        1
                                                                 
     s        2
                                                                 

     Band symmetry, C_s (m)     point group:

     e(  1 -  1) =     -2.02137  eV     1   --> A'             
     e(  2 -  2) =     -1.01528  eV     1   --> A'             
     e(  3 -  3) =      1.95448  eV     1   --> A'             
     e(  4 -  4) =      3.76519  eV     1   --> A''            
     e(  5 -  5) =      7.39464  eV     1   --> A'             
     e(  6 -  6) =     10.18708  eV     1   --> A'             
     e(  7 -  7) =     13.71277  eV     1   --> A''            
     e(  8 -  8) =     14.10480  eV     1   --> A'             

 **************************************************************************

 **************************************************************************

                    xk=(   0.93333,   0.23333,   0.23333  )

     Band symmetry, C_s (m)     point group:

     e(  1 -  1) =     -2.10715  eV     1   --> A'             
     e(  2 -  2) =     -0.93880  eV     1   --> A'             
     e(  3 -  3) =      2.02778  eV     1   --> A'             
     e(  4 -  4) =      3.75090  eV     1   --> A''            
     e(  5 -  5) =      7.38133  eV     1   --> A'             
     e(  6 -  6) =     10.03917  eV     1   --> A'             
     e(  7 -  7) =     13.62825  eV     1   --> A''            
     e(  8 -  8) =     13.88688  eV     1   --> A'             

 **************************************************************************

 **************************************************************************

                    xk=(   0.90000,   0.22500,   0.22500  )

     Band symmetry, C_s (m)     point group:

     e(  1 -  1) =     -2.25295  eV     1   --> A'             
     e(  2 -  2) =     -0.80211  eV     1   --> A'             
     e(  3 -  3) =      2.12515  eV     1   --> A'             
     e(  4 -  4) =      3.74569  eV     1   --> A''            
     e(  5 -  5) =      7.38026  eV     1   --> A'             
     e(  6 -  6) =      9.90547  eV     1   --> A'             
     e(  7 -  7) =     13.49666  eV     1   --> A''            
     e(  8 -  8) =     13.66400  eV     1   --> A'             

 **************************************************************************

 **************************************************************************

                    xk=(   0.86667,   0.21667,   0.21667  )

     Band symmetry, C_s (m)     point group:

     e(  1 -  1) =     -2.43297  eV     1   --> A'             
     e(  2 -  2) =     -0.62760  eV     1   --> A'             
     e(  3 -  3) =      2.24285  eV     1   --> A'             
     e(  4 -  4) =      3.74969  eV     1   --> A''            
     e(  5 -  5) =      7.39102  eV     1   --> A'             
     e(  6 -  6) =      9.78692  eV     1   --> A'             
     e(  7 -  7) =     13.34778  eV     1   --> A''            
     e(  8 -  8) =     13.44090  eV     1   --> A'             

 **************************************************************************

 **************************************************************************

                    xk=(   0.83333,   0.20833,   0.20833  )

     Band symmetry, C_s (m)     point group:

     e(  1 -  1) =     -2.63059  eV     1   --> A'             
     e(  2 -  2) =     -0.42912  eV     1   --> A'             
     e(  3 -  3) =      2.37768  eV     1   --> A'             
     e(  4 -  4) =      3.76299  eV     1   --> A''            
     e(  5 -  5) =      7.41298  eV     1   --> A'             
     e(  6 -  6) =      9.68462  eV     1   --> A'             
     e(  7 -  7) =     13.19315  eV     1   --> A''            
     e(  8 -  8) =     13.21871  eV     1   --> A'             

 **************************************************************************

 **************************************************************************

                    xk=(   0.80000,   0.20000,   0.20000  )

     Band symmetry, C_s (m)     point group:

     e(  1 -  1) =     -2.83635  eV     1   --> A'             
     e(  2 -  2) =     -0.21394  eV     1   --> A'             
     e(  3 -  3) =      2.52695  eV     1   --> A'             
     e(  4 -  4) =      3.78564  eV     1   --> A''            
     e(  5 -  5) =      7.44523  eV     1   --> A'             
     e(  6 -  6) =      9.59984  eV     1   --> A'             
     e(  7 -  7) =     12.99792  eV     1   --> A'             
     e(  8 -  8) =     13.03728  eV     1   --> A''            

 **************************************************************************

 **************************************************************************

                    xk=(   0.76667,   0.19167,   0.19167  )

     Band symmetry, C_s (m)     point group:

     e(  1 -  1) =     -3.04470  eV     1   --> A'             
     e(  2 -  2) =      0.01410  eV     1   --> A'             
     e(  3 -  3) =      2.68832  eV     1   --> A'             
     e(  4 -  4) =      3.81769  eV     1   --> A''            
     e(  5 -  5) =      7.48658  eV     1   --> A'             
     e(  6 -  6) =      9.53410  eV     1   --> A'             
     e(  7 -  7) =     12.77877  eV     1   --> A'             
     e(  8 -  8) =     12.88180  eV     1   --> A''            

 **************************************************************************

 **************************************************************************

                    xk=(   0.73333,   0.18333,   0.18333  )

     Band symmetry, C_s (m)     point group:

     e(  1 -  1) =     -3.25214  eV     1   --> A'             
     e(  2 -  2) =      0.25285  eV     1   --> A'             
     e(  3 -  3) =      2.85975  eV     1   --> A'             
     e(  4 -  4) =      3.85914  eV     1   --> A''            
     e(  5 -  5) =      7.53549  eV     1   --> A'             
     e(  6 -  6) =      9.48914  eV     1   --> A'             
     e(  7 -  7) =     12.56145  eV     1   --> A'             
     e(  8 -  8) =     12.72694  eV     1   --> A''            

 **************************************************************************

 **************************************************************************

                    xk=(   0.70000,   0.17500,   0.17500  )

     Band symmetry, C_s (m)     point group:

     e(  1 -  1) =     -3.45634  eV     1   --> A'             
     e(  2 -  2) =      0.50104  eV     1   --> A'             
     e(  3 -  3) =      3.03943  eV     1   --> A'             
     e(  4 -  4) =      3.90996  eV     1   --> A''            
     e(  5 -  5) =      7.59012  eV     1   --> A'             
     e(  6 -  6) =      9.46688  eV     1   --> A'             
     e(  7 -  7) =     12.34615  eV     1   --> A'             
     e(  8 -  8) =     12.57218  eV     1   --> A''            

 **************************************************************************

 **************************************************************************

                    xk=(   0.66667,   0.16667,   0.16667  )

     Band symmetry, C_s (m)     point group:

     e(  1 -  1) =     -3.65564  eV     1   --> A'             
     e(  2 -  2) =      0.75784  eV     1   --> A'             
     e(  3 -  3) =      3.22568  eV     1   --> A'             
     e(  4 -  4) =      3.97011  eV     1   --> A''            
     e(  5 -  5) =      7.64844  eV     1   --> A'             
     e(  6 -  6) =      9.46925  eV     1   --> A'             
     e(  7 -  7) =     12.13313  eV     1   --> A'             
     e(  8 -  8) =     12.41644  eV     1   --> A''            

 **************************************************************************

 **************************************************************************

                    xk=(   0.63333,   0.15833,   0.15833  )

     Band symmetry, C_s (m)     point group:

     e(  1 -  1) =     -3.84883  eV     1   --> A'             
     e(  2 -  2) =      1.02269  eV     1   --> A'             
     e(  3 -  3) =      3.41699  eV     1   --> A'             
     e(  4 -  4) =      4.03952  eV     1   --> A''            
     e(  5 -  5) =      7.70841  eV     1   --> A'             
     e(  6 -  6) =      9.49790  eV     1   --> A'             
     e(  7 -  7) =     11.92279  eV     1   --> A'             
     e(  8 -  8) =     12.25827  eV     1   --> A''            

 **************************************************************************

 **************************************************************************

                    xk=(   0.60000,   0.15000,   0.15000  )

     Band symmetry, C_s (m)     point group:

     e(  1 -  1) =     -4.03498  eV     1   --> A'             
     e(  2 -  2) =      1.29516  eV     1   --> A'             
     e(  3 -  3) =      3.61190  eV     1   --> A'             
     e(  4 -  4) =      4.11807  eV     1   --> A''            
     e(  5 -  5) =      7.76830  eV     1   --> A'             
     e(  6 -  6) =      9.55380  eV     1   --> A'             
     e(  7 -  7) =     11.71576  eV     1   --> A'             
     e(  8 -  8) =     12.09595  eV     1   --> A''            

 **************************************************************************

 **************************************************************************

                    xk=(   0.56667,   0.14167,   0.14167  )

     Band symmetry, C_s (m)     point group:

     e(  1 -  1) =     -4.21336  eV     1   --> A'             
     e(  2 -  2) =      1.57488  eV     1   --> A'             
     e(  3 -  3) =      3.80908  eV     1   --> A'             
     e(  4 -  4) =      4.20562  eV     1   --> A''            
     e(  5 -  5) =      7.82698  eV     1   --> A'             
     e(  6 -  6) =      9.63661  eV     1   --> A'             
     e(  7 -  7) =     11.51306  eV     1   --> A'             
     e(  8 -  8) =     11.92765  eV     1   --> A''            

 **************************************************************************

 **************************************************************************

                    xk=(   0.53333,   0.13333,   0.13333  )

     Band symmetry, C_s (m)     point group:

     e(  1 -  1) =     -4.38342  eV     1   --> A'             
     e(  2 -  2) =      1.86150  eV     1   --> A'             
     e(  3 -  3) =      4.00724  eV     1   --> A'             
     e(  4 -  4) =      4.30198  eV     1   --> A''            
     e(  5 -  5) =      7.88407  eV     1   --> A'             
     e(  6 -  6) =      9.74411  eV     1   --> A'             
     e(  7 -  7) =     11.31650  eV     1   --> A'             
     e(  8 -  8) =     11.75157  eV     1   --> A''            

 **************************************************************************

 **************************************************************************

                    xk=(   0.50000,   0.12500,   0.12500  )

     Band symmetry, C_s (m)     point group:

     e(  1 -  1) =     -4.54469  eV     1   --> A'             
     e(  2 -  2) =      2.15469  eV     1   --> A'             
     e(  3 -  3) =      4.20516  eV     1   --> A'             
     e(  4 -  4) =      4.40691  eV     1   --> A''            
     e(  5 -  5) =      7.93994  eV     1   --> A'             
     e(  6 -  6) =      9.87096  eV     1   --> A'             
     e(  7 -  7) =     11.12967  eV     1   --> A'             
     e(  8 -  8) =     11.56618  eV     1   --> A''            

 **************************************************************************

 **************************************************************************

                    xk=(   0.46667,   0.11667,   0.11667  )

     Band symmetry, C_s (m)     point group:

     e(  1 -  1) =     -4.69677  eV     1   --> A'             
     e(  2 -  2) =      2.45404  eV     1   --> A'             
     e(  3 -  3) =      4.40165  eV     1   --> A'             
     e(  4 -  4) =      4.52009  eV     1   --> A''            
     e(  5 -  5) =      7.99553  eV     1   --> A'             
     e(  6 -  6) =     10.00578  eV     1   --> A'             
     e(  7 -  7) =     10.96073  eV     1   --> A'             
     e(  8 -  8) =     11.37051  eV     1   --> A''            

 **************************************************************************

 **************************************************************************

                    xk=(   0.43333,   0.10833,   0.10833  )

     Band symmetry, C_s (m)     point group:

     e(  1 -  1) =     -4.83937  eV     1   --> A'             
     e(  2 -  2) =      2.75910  eV     1   --> A'             
     e(  3 -  3) =      4.59558  eV     1   --> A'             
     e(  4 -  4) =      4.64114  eV     1   --> A''            
     e(  5 -  5) =      8.05198  eV     1   --> A'             
     e(  6 -  6) =     10.12241  eV     1   --> A'             
     e(  7 -  7) =     10.83089  eV     1   --> A'             
     e(  8 -  8) =     11.16428  eV     1   --> A''            

 **************************************************************************

 **************************************************************************

                    xk=(   0.40000,   0.10000,   0.10000  )

     Band symmetry, C_s (m)     point group:

     e(  1 -  1) =     -4.97221  eV     1   --> A'             
     e(  2 -  2) =      3.06929  eV     1   --> A'             
     e(  3 -  3) =      4.76958  eV     1   --> A''            
     e(  4 -  4) =      4.78577  eV     1   --> A'             
     e(  5 -  5) =      8.11041  eV     1   --> A'             
     e(  6 -  6) =     10.16692  eV     1   --> A'             
     e(  7 -  7) =     10.78640  eV     1   --> A'             
     e(  8 -  8) =     10.94809  eV     1   --> A''            

 **************************************************************************

 **************************************************************************

                    xk=(   0.36667,   0.09167,   0.09167  )

     Band symmetry, C_s (m)     point group:

     e(  1 -  1) =     -5.09508  eV     1   --> A'             
     e(  2 -  2) =      3.38389  eV     1   --> A'             
     e(  3 -  3) =      4.90475  eV     1   --> A''            
     e(  4 -  4) =      4.97107  eV     1   --> A'             
     e(  5 -  5) =      8.17166  eV     1   --> A'             
     e(  6 -  6) =     10.10459  eV     1   --> A'             
     e(  7 -  7) =     10.72342  eV     1   --> A''            
     e(  8 -  8) =     10.84949  eV     1   --> A'             

 **************************************************************************

 **************************************************************************

                    xk=(   0.33333,   0.08333,   0.08333  )

     Band symmetry, C_s (m)     point group:

     e(  1 -  1) =     -5.20778  eV     1   --> A'             
     e(  2 -  2) =      3.70195  eV     1   --> A'             
     e(  3 -  3) =      5.04584  eV     1   --> A''            
     e(  4 -  4) =      5.15023  eV     1   --> A'             
     e(  5 -  5) =      8.23621  eV     1   --> A'             
     e(  6 -  6) =      9.97809  eV     1   --> A'             
     e(  7 -  7) =     10.49251  eV     1   --> A''            
     e(  8 -  8) =     10.95572  eV     1   --> A'             

 **************************************************************************

 **************************************************************************

                    xk=(   0.30000,   0.07500,   0.07500  )

     Band symmetry, C_s (m)     point group:

     e(  1 -  1) =     -5.31016  eV     1   --> A'             
     e(  2 -  2) =      4.02222  eV     1   --> A'             
     e(  3 -  3) =      5.19176  eV     1   --> A''            
     e(  4 -  4) =      5.32193  eV     1   --> A'             
     e(  5 -  5) =      8.30399  eV     1   --> A'             
     e(  6 -  6) =      9.82923  eV     1   --> A'             
     e(  7 -  7) =     10.25823  eV     1   --> A''            
     e(  8 -  8) =     11.02691  eV     1   --> A'             

 **************************************************************************

 **************************************************************************

                    xk=(   0.26667,   0.06667,   0.06667  )

     Band symmetry, C_s (m)     point group:

     e(  1 -  1) =     -5.40208  eV     1   --> A'             
     e(  2 -  2) =      4.34298  eV     1   --> A'             
     e(  3 -  3) =      5.34108  eV     1   --> A''            
     e(  4 -  4) =      5.48472  eV     1   --> A'             
     e(  5 -  5) =      8.37443  eV     1   --> A'             
     e(  6 -  6) =      9.67527  eV     1   --> A'             
     e(  7 -  7) =     10.02397  eV     1   --> A''            
     e(  8 -  8) =     11.00237  eV     1   --> A'             

 **************************************************************************

 **************************************************************************

                    xk=(   0.23333,   0.05833,   0.05833  )

     Band symmetry, C_s (m)     point group:

     e(  1 -  1) =     -5.48342  eV     1   --> A'             
     e(  2 -  2) =      4.66183  eV     1   --> A'             
     e(  3 -  3) =      5.49185  eV     1   --> A''            
     e(  4 -  4) =      5.63693  eV     1   --> A'             
     e(  5 -  5) =      8.44628  eV     1   --> A'             
     e(  6 -  6) =      9.52321  eV     1   --> A'             
     e(  7 -  7) =      9.79359  eV     1   --> A''            
     e(  8 -  8) =     10.86300  eV     1   --> A'             

 **************************************************************************

 **************************************************************************

                    xk=(   0.20000,   0.05000,   0.05000  )

     Band symmetry, C_s (m)     point group:

     e(  1 -  1) =     -5.55410  eV     1   --> A'             
     e(  2 -  2) =      4.97532  eV     1   --> A'             
     e(  3 -  3) =      5.64145  eV     1   --> A''            
     e(  4 -  4) =      5.77669  eV     1   --> A'             
     e(  5 -  5) =      8.51771  eV     1   --> A'             
     e(  6 -  6) =      9.37645  eV     1   --> A'             
     e(  7 -  7) =      9.57149  eV     1   --> A''            
     e(  8 -  8) =     10.64245  eV     1   --> A'             

 **************************************************************************

 **************************************************************************

                    xk=(   0.16667,   0.04167,   0.04167  )

     Band symmetry, C_s (m)     point group:

     e(  1 -  1) =     -5.61404  eV     1   --> A'             
     e(  2 -  2) =      5.27839  eV     1   --> A'             
     e(  3 -  3) =      5.78626  eV     1   --> A''            
     e(  4 -  4) =      5.90181  eV     1   --> A'             
     e(  5 -  5) =      8.58624  eV     1   --> A'             
     e(  6 -  6) =      9.23687  eV     1   --> A'             
     e(  7 -  7) =      9.36283  eV     1   --> A''            
     e(  8 -  8) =     10.38752  eV     1   --> A'             

 **************************************************************************

 **************************************************************************

                    xk=(   0.13333,   0.03333,   0.03333  )

     Band symmetry, C_s (m)     point group:

     e(  1 -  1) =     -5.66316  eV     1   --> A'             
     e(  2 -  2) =      5.56339  eV     1   --> A'             
     e(  3 -  3) =      5.92134  eV     1   --> A''            
     e(  4 -  4) =      6.00981  eV     1   --> A'             
     e(  5 -  5) =      8.64887  eV     1   --> A'             
     e(  6 -  6) =      9.10575  eV     1   --> A'             
     e(  7 -  7) =      9.17381  eV     1   --> A''            
     e(  8 -  8) =     10.13417  eV     1   --> A'             

 **************************************************************************

 **************************************************************************

                    xk=(   0.10000,   0.02500,   0.02500  )

     Band symmetry, C_s (m)     point group:

     e(  1 -  1) =     -5.70141  eV     1   --> A'             
     e(  2 -  2) =      5.81878  eV     1   --> A'             
     e(  3 -  3) =      6.04020  eV     1   --> A''            
     e(  4 -  4) =      6.09799  eV     1   --> A'             
     e(  5 -  5) =      8.70228  eV     1   --> A'             
     e(  6 -  6) =      8.98513  eV     1   --> A'             
     e(  7 -  7) =      9.01197  eV     1   --> A''            
     e(  8 -  8) =      9.90918  eV     1   --> A'             

 **************************************************************************

 **************************************************************************

                    xk=(   0.06667,   0.01667,   0.01667  )

     Band symmetry, C_s (m)     point group:

     e(  1 -  1) =     -5.72877  eV     1   --> A'             
     e(  2 -  2) =      6.02764  eV     1   --> A'             
     e(  3 -  3) =      6.13477  eV     1   --> A''            
     e(  4 -  4) =      6.16359  eV     1   --> A'             
     e(  5 -  5) =      8.74324  eV     1   --> A'             
     e(  6 -  6) =      8.88075  eV     1   --> A'             
     e(  7 -  7) =      8.88616  eV     1   --> A''            
     e(  8 -  8) =      9.73406  eV     1   --> A'             

 **************************************************************************

 **************************************************************************

                    xk=(   0.03333,   0.00833,   0.00833  )

     Band symmetry, C_s (m)     point group:

     e(  1 -  1) =     -5.74519  eV     1   --> A'             
     e(  2 -  2) =      6.16790  eV     1   --> A'             
     e(  3 -  3) =      6.19637  eV     1   --> A''            
     e(  4 -  4) =      6.20412  eV     1   --> A'             
     e(  5 -  5) =      8.76899  eV     1   --> A'             
     e(  6 -  6) =      8.80561  eV     1   --> A''            
     e(  7 -  7) =      8.80574  eV     1   --> A'             
     e(  8 -  8) =      9.62411  eV     1   --> A'             

 **************************************************************************

 **************************************************************************

                    xk=(   0.00000,   0.00000,   0.00000  )

     point group O_h (m-3m) 
     there are 10 classes
     the character table:

       E     8C3   3C2   6C4   6C2'  i     8S6   3s_h  6S4   6s_d 
A_1g   1.00  1.00  1.00  1.00  1.00  1.00  1.00  1.00  1.00  1.00
A_2g   1.00  1.00  1.00 -1.00 -1.00  1.00  1.00  1.00 -1.00 -1.00
E_g    2.00 -1.00  2.00  0.00  0.00  2.00 -1.00  2.00  0.00  0.00
T_1g   3.00  0.00 -1.00  1.00 -1.00  3.00  0.00 -1.00  1.00 -1.00
T_2g   3.00  0.00 -1.00 -1.00  1.00  3.00  0.00 -1.00 -1.00  1.00
A_1u   1.00  1.00  1.00  1.00  1.00 -1.00 -1.00 -1.00 -1.00 -1.00
A_2u   1.00  1.00  1.00 -1.00 -1.00 -1.00 -1.00 -1.00  1.00  1.00
E_u    2.00 -1.00  2.00  0.00  0.00 -2.00  1.00 -2.00  0.00  0.00
T_1u   3.00  0.00 -1.00  1.00 -1.00 -3.00  0.00  1.00 -1.00  1.00
T_2u   3.00  0.00 -1.00 -1.00  1.00 -3.00  0.00  1.00  1.00 -1.00

     the symmetry operations in each class and the name of the first element:

     E        1
                                                                 
     8C3     17   19   20   18   24   21   22   23
                                                                 
     3C2      2    4    3
                                                                 
     6C4      7    8   15   16   12   11
                                                                 
     6C2'     5    6   14   13   10    9
                                                                 
     i       25
                                                                 
     8S6     41   43   44   42   48   45   46   47
                                                                 
     3s_h    26   28   27
                                                                 
     6S4     31   32   39   40   36   35
                                                                 
     6s_d    29   30   38   37   34   33
                                                                 

     Band symmetry, O_h (m-3m)  point group:

     e(  1 -  1) =     -5.75067  eV     1   --> A_1g G_1   G_1+
     e(  2 -  4) =      6.21785  eV     3   --> T_2g G_25' G_5+
     e(  5 -  7) =      8.77778  eV     3   --> T_1u G_15  G_4-
     e(  8 -  8) =      9.58686  eV     1   --> A_2u G_2'  G_2-

 **************************************************************************

     BANDS        :      2.98s CPU      3.23s WALL


   This run was terminated on:   9:51:33  20Oct2023            

=------------------------------------------------------------------------------=
   JOB DONE.
=------------------------------------------------------------------------------=
