
     Program PWSCF v.7.2 starts on 20Oct2023 at  9:51: 7 

     This program is part of the open-source Quantum ESPRESSO suite
     for quantum simulation of materials; please cite
         "P. Giannozzi et al., J. Phys.:Condens. Matter 21 395502 (2009);
         "P. Giannozzi et al., J. Phys.:Condens. Matter 29 465901 (2017);
         "P. Giannozzi et al., J. Chem. Phys. 152 154105 (2020);
          URL http://www.quantum-espresso.org", 
     in publications or presentations arising from this work. More details at
     http://www.quantum-espresso.org/quote

     Parallel version (MPI), running on     6 processors

     MPI processes distributed on     1 nodes
     8985 MiB available memory on the printing compute node when the environment starts

     Reading input from bands.in

     Current dimensions of program PWSCF are:
     Max number of different atomic species (ntypx) = 10
     Max number of k-points (npk) =  40000
     Max angular momentum in pseudopotentials (lmaxx) =  4

     Atomic positions and unit cell read from directory:
     ./silicon.save/


     R & G space division:  proc/nbgrp/npool/nimage =       6
     Subspace diagonalization in iterative solution of the eigenvalue problem:
     a serial algorithm will be used


     Parallelization info
     --------------------
     sticks:   dense  smooth     PW     G-vecs:    dense   smooth      PW
     Min         241     122     35                 6054     2156     347
     Max         243     123     36                 6055     2158     349
     Sum        1453     733    211                36325    12939    2085

     Using Slab Decomposition



     bravais-lattice index     =            2
     lattice parameter (alat)  =      10.2600  a.u.
     unit-cell volume          =     270.0114 (a.u.)^3
     number of atoms/cell      =            2
     number of atomic types    =            1
     number of electrons       =         8.00
     number of Kohn-Sham states=            8
     kinetic-energy cutoff     =      50.0000  Ry
     charge density cutoff     =     400.0000  Ry
     Exchange-correlation= PBE
                           (   1   4   3   4   0   0   0)

     celldm(1)=  10.260000  celldm(2)=   0.000000  celldm(3)=   0.000000
     celldm(4)=   0.000000  celldm(5)=   0.000000  celldm(6)=   0.000000

     crystal axes: (cart. coord. in units of alat)
               a(1) = (  -0.500000   0.000000   0.500000 )  
               a(2) = (   0.000000   0.500000   0.500000 )  
               a(3) = (  -0.500000   0.500000   0.000000 )  

     reciprocal axes: (cart. coord. in units 2 pi/alat)
               b(1) = ( -1.000000 -1.000000  1.000000 )  
               b(2) = (  1.000000  1.000000  1.000000 )  
               b(3) = ( -1.000000  1.000000 -1.000000 )  


     PseudoPot. # 1 for Si read from file:
     ../pseudo/SSSP/Si.pbe-n-rrkjus_psl.1.0.0.UPF
     MD5 check sum: 0b0bb1205258b0d07b9f9672cf965d36
     Pseudo is Ultrasoft + core correction, Zval =  4.0
     Generated using "atomic" code by A. Dal Corso  v.5.1
     Using radial grid of 1141 points,  6 beta functions with: 
                l(1) =   0
                l(2) =   0
                l(3) =   1
                l(4) =   1
                l(5) =   2
                l(6) =   2
     Q(r) pseudized with 0 coefficients 


     atomic species   valence    mass     pseudopotential
        Si             4.00    28.08600     Si( 1.00)

     48 Sym. Ops., with inversion, found (24 have fractional translation)


                                    s                        frac. trans.

      isym =  1     identity                                     

 cryst.   s( 1) = (     1          0          0      )
                  (     0          1          0      )
                  (     0          0          1      )

 cart.    s( 1) = (  1.0000000  0.0000000  0.0000000 )
                  (  0.0000000  1.0000000  0.0000000 )
                  (  0.0000000  0.0000000  1.0000000 )


      isym =  2     180 deg rotation - cart. axis [0,0,1]        

 cryst.   s( 2) = (     0          1         -1      )
                  (     1          0         -1      )
                  (     0          0         -1      )

 cart.    s( 2) = ( -1.0000000  0.0000000  0.0000000 )
                  (  0.0000000 -1.0000000  0.0000000 )
                  (  0.0000000  0.0000000  1.0000000 )


      isym =  3     180 deg rotation - cart. axis [0,1,0]        

 cryst.   s( 3) = (    -1          0          0      )
                  (    -1          0          1      )
                  (    -1          1          0      )

 cart.    s( 3) = ( -1.0000000  0.0000000  0.0000000 )
                  (  0.0000000  1.0000000  0.0000000 )
                  (  0.0000000  0.0000000 -1.0000000 )


      isym =  4     180 deg rotation - cart. axis [1,0,0]        

 cryst.   s( 4) = (     0         -1          1      )
                  (     0         -1          0      )
                  (     1         -1          0      )

 cart.    s( 4) = (  1.0000000  0.0000000  0.0000000 )
                  (  0.0000000 -1.0000000  0.0000000 )
                  (  0.0000000  0.0000000 -1.0000000 )


      isym =  5     180 deg rotation - cart. axis [1,1,0]        

 cryst.   s( 5) = (     0         -1          0      )    f =(  0.2500000 )
                  (    -1          0          0      )       (  0.2500000 )
                  (     0          0         -1      )       (  0.2500000 )

 cart.    s( 5) = (  0.0000000  1.0000000  0.0000000 )    f =( -0.2500000 )
                  (  1.0000000  0.0000000  0.0000000 )       (  0.2500000 )
                  (  0.0000000  0.0000000 -1.0000000 )       (  0.2500000 )


      isym =  6     180 deg rotation - cart. axis [1,-1,0]       

 cryst.   s( 6) = (    -1          0          1      )    f =(  0.2500000 )
                  (     0         -1          1      )       (  0.2500000 )
                  (     0          0          1      )       (  0.2500000 )

 cart.    s( 6) = (  0.0000000 -1.0000000  0.0000000 )    f =( -0.2500000 )
                  ( -1.0000000  0.0000000  0.0000000 )       (  0.2500000 )
                  (  0.0000000  0.0000000 -1.0000000 )       (  0.2500000 )


      isym =  7      90 deg rotation - cart. axis [0,0,-1]       

 cryst.   s( 7) = (     0          1          0      )    f =(  0.2500000 )
                  (     0          1         -1      )       (  0.2500000 )
                  (    -1          1          0      )       (  0.2500000 )

 cart.    s( 7) = (  0.0000000  1.0000000  0.0000000 )    f =( -0.2500000 )
                  ( -1.0000000  0.0000000  0.0000000 )       (  0.2500000 )
                  (  0.0000000  0.0000000  1.0000000 )       (  0.2500000 )


      isym =  8      90 deg rotation - cart. axis [0,0,1]        

 cryst.   s( 8) = (     1          0         -1      )    f =(  0.2500000 )
                  (     1          0          0      )       (  0.2500000 )
                  (     1         -1          0      )       (  0.2500000 )

 cart.    s( 8) = (  0.0000000 -1.0000000  0.0000000 )    f =( -0.2500000 )
                  (  1.0000000  0.0000000  0.0000000 )       (  0.2500000 )
                  (  0.0000000  0.0000000  1.0000000 )       (  0.2500000 )


      isym =  9     180 deg rotation - cart. axis [1,0,1]        

 cryst.   s( 9) = (    -1          0          0      )    f =(  0.2500000 )
                  (     0          0         -1      )       (  0.2500000 )
                  (     0         -1          0      )       (  0.2500000 )

 cart.    s( 9) = (  0.0000000  0.0000000  1.0000000 )    f =( -0.2500000 )
                  (  0.0000000 -1.0000000  0.0000000 )       (  0.2500000 )
                  (  1.0000000  0.0000000  0.0000000 )       (  0.2500000 )


      isym = 10     180 deg rotation - cart. axis [-1,0,1]       

 cryst.   s(10) = (     1          0          0      )    f =(  0.2500000 )
                  (     1         -1          0      )       (  0.2500000 )
                  (     1          0         -1      )       (  0.2500000 )

 cart.    s(10) = (  0.0000000  0.0000000 -1.0000000 )    f =( -0.2500000 )
                  (  0.0000000 -1.0000000  0.0000000 )       (  0.2500000 )
                  ( -1.0000000  0.0000000  0.0000000 )       (  0.2500000 )


      isym = 11      90 deg rotation - cart. axis [0,1,0]        

 cryst.   s(11) = (     0          1         -1      )    f =(  0.2500000 )
                  (    -1          1          0      )       (  0.2500000 )
                  (     0          1          0      )       (  0.2500000 )

 cart.    s(11) = (  0.0000000  0.0000000  1.0000000 )    f =( -0.2500000 )
                  (  0.0000000  1.0000000  0.0000000 )       (  0.2500000 )
                  ( -1.0000000  0.0000000  0.0000000 )       (  0.2500000 )


      isym = 12      90 deg rotation - cart. axis [0,-1,0]       

 cryst.   s(12) = (     0         -1          1      )    f =(  0.2500000 )
                  (     0          0          1      )       (  0.2500000 )
                  (    -1          0          1      )       (  0.2500000 )

 cart.    s(12) = (  0.0000000  0.0000000 -1.0000000 )    f =( -0.2500000 )
                  (  0.0000000  1.0000000  0.0000000 )       (  0.2500000 )
                  (  1.0000000  0.0000000  0.0000000 )       (  0.2500000 )


      isym = 13     180 deg rotation - cart. axis [0,1,1]        

 cryst.   s(13) = (    -1          1          0      )    f =(  0.2500000 )
                  (     0          1          0      )       (  0.2500000 )
                  (     0          1         -1      )       (  0.2500000 )

 cart.    s(13) = ( -1.0000000  0.0000000  0.0000000 )    f =( -0.2500000 )
                  (  0.0000000  0.0000000  1.0000000 )       (  0.2500000 )
                  (  0.0000000  1.0000000  0.0000000 )       (  0.2500000 )


      isym = 14     180 deg rotation - cart. axis [0,1,-1]       

 cryst.   s(14) = (     0          0         -1      )    f =(  0.2500000 )
                  (     0         -1          0      )       (  0.2500000 )
                  (    -1          0          0      )       (  0.2500000 )

 cart.    s(14) = ( -1.0000000  0.0000000  0.0000000 )    f =( -0.2500000 )
                  (  0.0000000  0.0000000 -1.0000000 )       (  0.2500000 )
                  (  0.0000000 -1.0000000  0.0000000 )       (  0.2500000 )


      isym = 15      90 deg rotation - cart. axis [-1,0,0]       

 cryst.   s(15) = (     0          0          1      )    f =(  0.2500000 )
                  (    -1          0          1      )       (  0.2500000 )
                  (     0         -1          1      )       (  0.2500000 )

 cart.    s(15) = (  1.0000000  0.0000000  0.0000000 )    f =( -0.2500000 )
                  (  0.0000000  0.0000000  1.0000000 )       (  0.2500000 )
                  (  0.0000000 -1.0000000  0.0000000 )       (  0.2500000 )


      isym = 16      90 deg rotation - cart. axis [1,0,0]        

 cryst.   s(16) = (     1         -1          0      )    f =(  0.2500000 )
                  (     1          0         -1      )       (  0.2500000 )
                  (     1          0          0      )       (  0.2500000 )

 cart.    s(16) = (  1.0000000  0.0000000  0.0000000 )    f =( -0.2500000 )
                  (  0.0000000  0.0000000 -1.0000000 )       (  0.2500000 )
                  (  0.0000000  1.0000000  0.0000000 )       (  0.2500000 )


      isym = 17     120 deg rotation - cart. axis [-1,-1,-1]     

 cryst.   s(17) = (    -1          0          1      )
                  (    -1          1          0      )
                  (    -1          0          0      )

 cart.    s(17) = (  0.0000000  1.0000000  0.0000000 )
                  (  0.0000000  0.0000000  1.0000000 )
                  (  1.0000000  0.0000000  0.0000000 )


      isym = 18     120 deg rotation - cart. axis [-1,1,1]       

 cryst.   s(18) = (     0          1          0      )
                  (     0          0          1      )
                  (     1          0          0      )

 cart.    s(18) = (  0.0000000 -1.0000000  0.0000000 )
                  (  0.0000000  0.0000000  1.0000000 )
                  ( -1.0000000  0.0000000  0.0000000 )


      isym = 19     120 deg rotation - cart. axis [1,1,-1]       

 cryst.   s(19) = (     1          0         -1      )
                  (     0          0         -1      )
                  (     0          1         -1      )

 cart.    s(19) = (  0.0000000  1.0000000  0.0000000 )
                  (  0.0000000  0.0000000 -1.0000000 )
                  ( -1.0000000  0.0000000  0.0000000 )


      isym = 20     120 deg rotation - cart. axis [1,-1,1]       

 cryst.   s(20) = (     0         -1          0      )
                  (     1         -1          0      )
                  (     0         -1          1      )

 cart.    s(20) = (  0.0000000 -1.0000000  0.0000000 )
                  (  0.0000000  0.0000000 -1.0000000 )
                  (  1.0000000  0.0000000  0.0000000 )


      isym = 21     120 deg rotation - cart. axis [1,1,1]        

 cryst.   s(21) = (     0          0         -1      )
                  (     0          1         -1      )
                  (     1          0         -1      )

 cart.    s(21) = (  0.0000000  0.0000000  1.0000000 )
                  (  1.0000000  0.0000000  0.0000000 )
                  (  0.0000000  1.0000000  0.0000000 )


      isym = 22     120 deg rotation - cart. axis [-1,1,-1]      

 cryst.   s(22) = (    -1          1          0      )
                  (    -1          0          0      )
                  (    -1          0          1      )

 cart.    s(22) = (  0.0000000  0.0000000  1.0000000 )
                  ( -1.0000000  0.0000000  0.0000000 )
                  (  0.0000000 -1.0000000  0.0000000 )


      isym = 23     120 deg rotation - cart. axis [1,-1,-1]      

 cryst.   s(23) = (     0          0          1      )
                  (     1          0          0      )
                  (     0          1          0      )

 cart.    s(23) = (  0.0000000  0.0000000 -1.0000000 )
                  ( -1.0000000  0.0000000  0.0000000 )
                  (  0.0000000  1.0000000  0.0000000 )


      isym = 24     120 deg rotation - cart. axis [-1,-1,1]      

 cryst.   s(24) = (     1         -1          0      )
                  (     0         -1          1      )
                  (     0         -1          0      )

 cart.    s(24) = (  0.0000000  0.0000000 -1.0000000 )
                  (  1.0000000  0.0000000  0.0000000 )
                  (  0.0000000 -1.0000000  0.0000000 )


      isym = 25     inversion                                    

 cryst.   s(25) = (    -1          0          0      )    f =(  0.2500000 )
                  (     0         -1          0      )       (  0.2500000 )
                  (     0          0         -1      )       (  0.2500000 )

 cart.    s(25) = ( -1.0000000  0.0000000  0.0000000 )    f =( -0.2500000 )
                  (  0.0000000 -1.0000000  0.0000000 )       (  0.2500000 )
                  (  0.0000000  0.0000000 -1.0000000 )       (  0.2500000 )


      isym = 26     inv. 180 deg rotation - cart. axis [0,0,1]   

 cryst.   s(26) = (     0         -1          1      )    f =(  0.2500000 )
                  (    -1          0          1      )       (  0.2500000 )
                  (     0          0          1      )       (  0.2500000 )

 cart.    s(26) = (  1.0000000  0.0000000  0.0000000 )    f =( -0.2500000 )
                  (  0.0000000  1.0000000  0.0000000 )       (  0.2500000 )
                  (  0.0000000  0.0000000 -1.0000000 )       (  0.2500000 )


      isym = 27     inv. 180 deg rotation - cart. axis [0,1,0]   

 cryst.   s(27) = (     1          0          0      )    f =(  0.2500000 )
                  (     1          0         -1      )       (  0.2500000 )
                  (     1         -1          0      )       (  0.2500000 )

 cart.    s(27) = (  1.0000000  0.0000000  0.0000000 )    f =( -0.2500000 )
                  (  0.0000000 -1.0000000  0.0000000 )       (  0.2500000 )
                  (  0.0000000  0.0000000  1.0000000 )       (  0.2500000 )


      isym = 28     inv. 180 deg rotation - cart. axis [1,0,0]   

 cryst.   s(28) = (     0          1         -1      )    f =(  0.2500000 )
                  (     0          1          0      )       (  0.2500000 )
                  (    -1          1          0      )       (  0.2500000 )

 cart.    s(28) = ( -1.0000000  0.0000000  0.0000000 )    f =( -0.2500000 )
                  (  0.0000000  1.0000000  0.0000000 )       (  0.2500000 )
                  (  0.0000000  0.0000000  1.0000000 )       (  0.2500000 )


      isym = 29     inv. 180 deg rotation - cart. axis [1,1,0]   

 cryst.   s(29) = (     0          1          0      )
                  (     1          0          0      )
                  (     0          0          1      )

 cart.    s(29) = (  0.0000000 -1.0000000  0.0000000 )
                  ( -1.0000000  0.0000000  0.0000000 )
                  (  0.0000000  0.0000000  1.0000000 )


      isym = 30     inv. 180 deg rotation - cart. axis [1,-1,0]  

 cryst.   s(30) = (     1          0         -1      )
                  (     0          1         -1      )
                  (     0          0         -1      )

 cart.    s(30) = (  0.0000000  1.0000000  0.0000000 )
                  (  1.0000000  0.0000000  0.0000000 )
                  (  0.0000000  0.0000000  1.0000000 )


      isym = 31     inv.  90 deg rotation - cart. axis [0,0,-1]  

 cryst.   s(31) = (     0         -1          0      )
                  (     0         -1          1      )
                  (     1         -1          0      )

 cart.    s(31) = (  0.0000000 -1.0000000  0.0000000 )
                  (  1.0000000  0.0000000  0.0000000 )
                  (  0.0000000  0.0000000 -1.0000000 )


      isym = 32     inv.  90 deg rotation - cart. axis [0,0,1]   

 cryst.   s(32) = (    -1          0          1      )
                  (    -1          0          0      )
                  (    -1          1          0      )

 cart.    s(32) = (  0.0000000  1.0000000  0.0000000 )
                  ( -1.0000000  0.0000000  0.0000000 )
                  (  0.0000000  0.0000000 -1.0000000 )


      isym = 33     inv. 180 deg rotation - cart. axis [1,0,1]   

 cryst.   s(33) = (     1          0          0      )
                  (     0          0          1      )
                  (     0          1          0      )

 cart.    s(33) = (  0.0000000  0.0000000 -1.0000000 )
                  (  0.0000000  1.0000000  0.0000000 )
                  ( -1.0000000  0.0000000  0.0000000 )


      isym = 34     inv. 180 deg rotation - cart. axis [-1,0,1]  

 cryst.   s(34) = (    -1          0          0      )
                  (    -1          1          0      )
                  (    -1          0          1      )

 cart.    s(34) = (  0.0000000  0.0000000  1.0000000 )
                  (  0.0000000  1.0000000  0.0000000 )
                  (  1.0000000  0.0000000  0.0000000 )


      isym = 35     inv.  90 deg rotation - cart. axis [0,1,0]   

 cryst.   s(35) = (     0         -1          1      )
                  (     1         -1          0      )
                  (     0         -1          0      )

 cart.    s(35) = (  0.0000000  0.0000000 -1.0000000 )
                  (  0.0000000 -1.0000000  0.0000000 )
                  (  1.0000000  0.0000000  0.0000000 )


      isym = 36     inv.  90 deg rotation - cart. axis [0,-1,0]  

 cryst.   s(36) = (     0          1         -1      )
                  (     0          0         -1      )
                  (     1          0         -1      )

 cart.    s(36) = (  0.0000000  0.0000000  1.0000000 )
                  (  0.0000000 -1.0000000  0.0000000 )
                  ( -1.0000000  0.0000000  0.0000000 )


      isym = 37     inv. 180 deg rotation - cart. axis [0,1,1]   

 cryst.   s(37) = (     1         -1          0      )
                  (     0         -1          0      )
                  (     0         -1          1      )

 cart.    s(37) = (  1.0000000  0.0000000  0.0000000 )
                  (  0.0000000  0.0000000 -1.0000000 )
                  (  0.0000000 -1.0000000  0.0000000 )


      isym = 38     inv. 180 deg rotation - cart. axis [0,1,-1]  

 cryst.   s(38) = (     0          0          1      )
                  (     0          1          0      )
                  (     1          0          0      )

 cart.    s(38) = (  1.0000000  0.0000000  0.0000000 )
                  (  0.0000000  0.0000000  1.0000000 )
                  (  0.0000000  1.0000000  0.0000000 )


      isym = 39     inv.  90 deg rotation - cart. axis [-1,0,0]  

 cryst.   s(39) = (     0          0         -1      )
                  (     1          0         -1      )
                  (     0          1         -1      )

 cart.    s(39) = ( -1.0000000  0.0000000  0.0000000 )
                  (  0.0000000  0.0000000 -1.0000000 )
                  (  0.0000000  1.0000000  0.0000000 )


      isym = 40     inv.  90 deg rotation - cart. axis [1,0,0]   

 cryst.   s(40) = (    -1          1          0      )
                  (    -1          0          1      )
                  (    -1          0          0      )

 cart.    s(40) = ( -1.0000000  0.0000000  0.0000000 )
                  (  0.0000000  0.0000000  1.0000000 )
                  (  0.0000000 -1.0000000  0.0000000 )


      isym = 41     inv. 120 deg rotation - cart. axis [-1,-1,-1]

 cryst.   s(41) = (     1          0         -1      )    f =(  0.2500000 )
                  (     1         -1          0      )       (  0.2500000 )
                  (     1          0          0      )       (  0.2500000 )

 cart.    s(41) = (  0.0000000 -1.0000000  0.0000000 )    f =( -0.2500000 )
                  (  0.0000000  0.0000000 -1.0000000 )       (  0.2500000 )
                  ( -1.0000000  0.0000000  0.0000000 )       (  0.2500000 )


      isym = 42     inv. 120 deg rotation - cart. axis [-1,1,1]  

 cryst.   s(42) = (     0         -1          0      )    f =(  0.2500000 )
                  (     0          0         -1      )       (  0.2500000 )
                  (    -1          0          0      )       (  0.2500000 )

 cart.    s(42) = (  0.0000000  1.0000000  0.0000000 )    f =( -0.2500000 )
                  (  0.0000000  0.0000000 -1.0000000 )       (  0.2500000 )
                  (  1.0000000  0.0000000  0.0000000 )       (  0.2500000 )


      isym = 43     inv. 120 deg rotation - cart. axis [1,1,-1]  

 cryst.   s(43) = (    -1          0          1      )    f =(  0.2500000 )
                  (     0          0          1      )       (  0.2500000 )
                  (     0         -1          1      )       (  0.2500000 )

 cart.    s(43) = (  0.0000000 -1.0000000  0.0000000 )    f =( -0.2500000 )
                  (  0.0000000  0.0000000  1.0000000 )       (  0.2500000 )
                  (  1.0000000  0.0000000  0.0000000 )       (  0.2500000 )


      isym = 44     inv. 120 deg rotation - cart. axis [1,-1,1]  

 cryst.   s(44) = (     0          1          0      )    f =(  0.2500000 )
                  (    -1          1          0      )       (  0.2500000 )
                  (     0          1         -1      )       (  0.2500000 )

 cart.    s(44) = (  0.0000000  1.0000000  0.0000000 )    f =( -0.2500000 )
                  (  0.0000000  0.0000000  1.0000000 )       (  0.2500000 )
                  ( -1.0000000  0.0000000  0.0000000 )       (  0.2500000 )


      isym = 45     inv. 120 deg rotation - cart. axis [1,1,1]   

 cryst.   s(45) = (     0          0          1      )    f =(  0.2500000 )
                  (     0         -1          1      )       (  0.2500000 )
                  (    -1          0          1      )       (  0.2500000 )

 cart.    s(45) = (  0.0000000  0.0000000 -1.0000000 )    f =( -0.2500000 )
                  ( -1.0000000  0.0000000  0.0000000 )       (  0.2500000 )
                  (  0.0000000 -1.0000000  0.0000000 )       (  0.2500000 )


      isym = 46     inv. 120 deg rotation - cart. axis [-1,1,-1] 

 cryst.   s(46) = (     1         -1          0      )    f =(  0.2500000 )
                  (     1          0          0      )       (  0.2500000 )
                  (     1          0         -1      )       (  0.2500000 )

 cart.    s(46) = (  0.0000000  0.0000000 -1.0000000 )    f =( -0.2500000 )
                  (  1.0000000  0.0000000  0.0000000 )       (  0.2500000 )
                  (  0.0000000  1.0000000  0.0000000 )       (  0.2500000 )


      isym = 47     inv. 120 deg rotation - cart. axis [1,-1,-1] 

 cryst.   s(47) = (     0          0         -1      )    f =(  0.2500000 )
                  (    -1          0          0      )       (  0.2500000 )
                  (     0         -1          0      )       (  0.2500000 )

 cart.    s(47) = (  0.0000000  0.0000000  1.0000000 )    f =( -0.2500000 )
                  (  1.0000000  0.0000000  0.0000000 )       (  0.2500000 )
                  (  0.0000000 -1.0000000  0.0000000 )       (  0.2500000 )


      isym = 48     inv. 120 deg rotation - cart. axis [-1,-1,1] 

 cryst.   s(48) = (    -1          1          0      )    f =(  0.2500000 )
                  (     0          1         -1      )       (  0.2500000 )
                  (     0          1          0      )       (  0.2500000 )

 cart.    s(48) = (  0.0000000  0.0000000  1.0000000 )    f =( -0.2500000 )
                  ( -1.0000000  0.0000000  0.0000000 )       (  0.2500000 )
                  (  0.0000000  1.0000000  0.0000000 )       (  0.2500000 )


     point group O_h (m-3m) 
     there are 10 classes
     the character table:

       E     8C3   3C2   6C4   6C2'  i     8S6   3s_h  6S4   6s_d 
A_1g   1.00  1.00  1.00  1.00  1.00  1.00  1.00  1.00  1.00  1.00
A_2g   1.00  1.00  1.00 -1.00 -1.00  1.00  1.00  1.00 -1.00 -1.00
E_g    2.00 -1.00  2.00  0.00  0.00  2.00 -1.00  2.00  0.00  0.00
T_1g   3.00  0.00 -1.00  1.00 -1.00  3.00  0.00 -1.00  1.00 -1.00
T_2g   3.00  0.00 -1.00 -1.00  1.00  3.00  0.00 -1.00 -1.00  1.00
A_1u   1.00  1.00  1.00  1.00  1.00 -1.00 -1.00 -1.00 -1.00 -1.00
A_2u   1.00  1.00  1.00 -1.00 -1.00 -1.00 -1.00 -1.00  1.00  1.00
E_u    2.00 -1.00  2.00  0.00  0.00 -2.00  1.00 -2.00  0.00  0.00
T_1u   3.00  0.00 -1.00  1.00 -1.00 -3.00  0.00  1.00 -1.00  1.00
T_2u   3.00  0.00 -1.00 -1.00  1.00 -3.00  0.00  1.00  1.00 -1.00

     the symmetry operations in each class and the name of the first element:

     E        1
          identity                                               
     8C3     17   19   20   18   24   21   22   23
          120 deg rotation - cart. axis [-1,-1,-1]               
     3C2      2    4    3
          180 deg rotation - cart. axis [0,0,1]                  
     6C4      7    8   15   16   12   11
           90 deg rotation - cart. axis [0,0,-1]                 
     6C2'     5    6   14   13   10    9
          180 deg rotation - cart. axis [1,1,0]                  
     i       25
          inversion                                              
     8S6     41   43   44   42   48   45   46   47
          inv. 120 deg rotation - cart. axis [-1,-1,-1]          
     3s_h    26   28   27
          inv. 180 deg rotation - cart. axis [0,0,1]             
     6S4     31   32   39   40   36   35
          inv.  90 deg rotation - cart. axis [0,0,-1]            
     6s_d    29   30   38   37   34   33
          inv. 180 deg rotation - cart. axis [1,1,0]             

   Cartesian axes

     site n.     atom                  positions (alat units)
         1           Si  tau(   1) = (   0.0000000   0.0000000   0.0000000  )
         2           Si  tau(   2) = (   0.2500000   0.2500000   0.2500000  )

   Crystallographic axes

     site n.     atom                  positions (cryst. coord.)
         1           Si  tau(   1) = (  0.0000000  0.0000000  0.0000000  )
         2           Si  tau(   2) = ( -0.2500000  0.7500000 -0.2500000  )

     number of k points=    91
                       cart. coord. in units 2pi/alat
        k(    1) = (   0.5000000   0.5000000   0.5000000), wk =   0.0219780
        k(    2) = (   0.4750000   0.4750000   0.4750000), wk =   0.0219780
        k(    3) = (   0.4500000   0.4500000   0.4500000), wk =   0.0219780
        k(    4) = (   0.4250000   0.4250000   0.4250000), wk =   0.0219780
        k(    5) = (   0.4000000   0.4000000   0.4000000), wk =   0.0219780
        k(    6) = (   0.3750000   0.3750000   0.3750000), wk =   0.0219780
        k(    7) = (   0.3500000   0.3500000   0.3500000), wk =   0.0219780
        k(    8) = (   0.3250000   0.3250000   0.3250000), wk =   0.0219780
        k(    9) = (   0.3000000   0.3000000   0.3000000), wk =   0.0219780
        k(   10) = (   0.2750000   0.2750000   0.2750000), wk =   0.0219780
        k(   11) = (   0.2500000   0.2500000   0.2500000), wk =   0.0219780
        k(   12) = (   0.2250000   0.2250000   0.2250000), wk =   0.0219780
        k(   13) = (   0.2000000   0.2000000   0.2000000), wk =   0.0219780
        k(   14) = (   0.1750000   0.1750000   0.1750000), wk =   0.0219780
        k(   15) = (   0.1500000   0.1500000   0.1500000), wk =   0.0219780
        k(   16) = (   0.1250000   0.1250000   0.1250000), wk =   0.0219780
        k(   17) = (   0.1000000   0.1000000   0.1000000), wk =   0.0219780
        k(   18) = (   0.0750000   0.0750000   0.0750000), wk =   0.0219780
        k(   19) = (   0.0500000   0.0500000   0.0500000), wk =   0.0219780
        k(   20) = (   0.0250000   0.0250000   0.0250000), wk =   0.0219780
        k(   21) = (   0.0000000   0.0000000   0.0000000), wk =   0.0219780
        k(   22) = (   0.0333333   0.0000000   0.0000000), wk =   0.0219780
        k(   23) = (   0.0666667   0.0000000   0.0000000), wk =   0.0219780
        k(   24) = (   0.1000000   0.0000000   0.0000000), wk =   0.0219780
        k(   25) = (   0.1333333   0.0000000   0.0000000), wk =   0.0219780
        k(   26) = (   0.1666667   0.0000000   0.0000000), wk =   0.0219780
        k(   27) = (   0.2000000   0.0000000   0.0000000), wk =   0.0219780
        k(   28) = (   0.2333333   0.0000000   0.0000000), wk =   0.0219780
        k(   29) = (   0.2666667   0.0000000   0.0000000), wk =   0.0219780
        k(   30) = (   0.3000000   0.0000000   0.0000000), wk =   0.0219780
        k(   31) = (   0.3333333   0.0000000   0.0000000), wk =   0.0219780
        k(   32) = (   0.3666667   0.0000000   0.0000000), wk =   0.0219780
        k(   33) = (   0.4000000   0.0000000   0.0000000), wk =   0.0219780
        k(   34) = (   0.4333333   0.0000000   0.0000000), wk =   0.0219780
        k(   35) = (   0.4666667   0.0000000   0.0000000), wk =   0.0219780
        k(   36) = (   0.5000000   0.0000000   0.0000000), wk =   0.0219780
        k(   37) = (   0.5333333   0.0000000   0.0000000), wk =   0.0219780
        k(   38) = (   0.5666667   0.0000000   0.0000000), wk =   0.0219780
        k(   39) = (   0.6000000   0.0000000   0.0000000), wk =   0.0219780
        k(   40) = (   0.6333333   0.0000000   0.0000000), wk =   0.0219780
        k(   41) = (   0.6666667   0.0000000   0.0000000), wk =   0.0219780
        k(   42) = (   0.7000000   0.0000000   0.0000000), wk =   0.0219780
        k(   43) = (   0.7333333   0.0000000   0.0000000), wk =   0.0219780
        k(   44) = (   0.7666667   0.0000000   0.0000000), wk =   0.0219780
        k(   45) = (   0.8000000   0.0000000   0.0000000), wk =   0.0219780
        k(   46) = (   0.8333333   0.0000000   0.0000000), wk =   0.0219780
        k(   47) = (   0.8666667   0.0000000   0.0000000), wk =   0.0219780
        k(   48) = (   0.9000000   0.0000000   0.0000000), wk =   0.0219780
        k(   49) = (   0.9333333   0.0000000   0.0000000), wk =   0.0219780
        k(   50) = (   0.9666667   0.0000000   0.0000000), wk =   0.0219780
        k(   51) = (   1.0000000   0.0000000   0.0000000), wk =   0.0219780
        k(   52) = (   1.0000000   0.0250000   0.0250000), wk =   0.0219780
        k(   53) = (   1.0000000   0.0500000   0.0500000), wk =   0.0219780
        k(   54) = (   1.0000000   0.0750000   0.0750000), wk =   0.0219780
        k(   55) = (   1.0000000   0.1000000   0.1000000), wk =   0.0219780
        k(   56) = (   1.0000000   0.1250000   0.1250000), wk =   0.0219780
        k(   57) = (   1.0000000   0.1500000   0.1500000), wk =   0.0219780
        k(   58) = (   1.0000000   0.1750000   0.1750000), wk =   0.0219780
        k(   59) = (   1.0000000   0.2000000   0.2000000), wk =   0.0219780
        k(   60) = (   1.0000000   0.2250000   0.2250000), wk =   0.0219780
        k(   61) = (   1.0000000   0.2500000   0.2500000), wk =   0.0219780
        k(   62) = (   0.9666667   0.2416667   0.2416667), wk =   0.0219780
        k(   63) = (   0.9333333   0.2333333   0.2333333), wk =   0.0219780
        k(   64) = (   0.9000000   0.2250000   0.2250000), wk =   0.0219780
        k(   65) = (   0.8666667   0.2166667   0.2166667), wk =   0.0219780
        k(   66) = (   0.8333333   0.2083333   0.2083333), wk =   0.0219780
        k(   67) = (   0.8000000   0.2000000   0.2000000), wk =   0.0219780
        k(   68) = (   0.7666667   0.1916667   0.1916667), wk =   0.0219780
        k(   69) = (   0.7333333   0.1833333   0.1833333), wk =   0.0219780
        k(   70) = (   0.7000000   0.1750000   0.1750000), wk =   0.0219780
        k(   71) = (   0.6666667   0.1666667   0.1666667), wk =   0.0219780
        k(   72) = (   0.6333333   0.1583333   0.1583333), wk =   0.0219780
        k(   73) = (   0.6000000   0.1500000   0.1500000), wk =   0.0219780
        k(   74) = (   0.5666667   0.1416667   0.1416667), wk =   0.0219780
        k(   75) = (   0.5333333   0.1333333   0.1333333), wk =   0.0219780
        k(   76) = (   0.5000000   0.1250000   0.1250000), wk =   0.0219780
        k(   77) = (   0.4666667   0.1166667   0.1166667), wk =   0.0219780
        k(   78) = (   0.4333333   0.1083333   0.1083333), wk =   0.0219780
        k(   79) = (   0.4000000   0.1000000   0.1000000), wk =   0.0219780
        k(   80) = (   0.3666667   0.0916667   0.0916667), wk =   0.0219780
        k(   81) = (   0.3333333   0.0833333   0.0833333), wk =   0.0219780
        k(   82) = (   0.3000000   0.0750000   0.0750000), wk =   0.0219780
        k(   83) = (   0.2666667   0.0666667   0.0666667), wk =   0.0219780
        k(   84) = (   0.2333333   0.0583333   0.0583333), wk =   0.0219780
        k(   85) = (   0.2000000   0.0500000   0.0500000), wk =   0.0219780
        k(   86) = (   0.1666667   0.0416667   0.0416667), wk =   0.0219780
        k(   87) = (   0.1333333   0.0333333   0.0333333), wk =   0.0219780
        k(   88) = (   0.1000000   0.0250000   0.0250000), wk =   0.0219780
        k(   89) = (   0.0666667   0.0166667   0.0166667), wk =   0.0219780
        k(   90) = (   0.0333333   0.0083333   0.0083333), wk =   0.0219780
        k(   91) = (   0.0000000   0.0000000   0.0000000), wk =   0.0219780

                       cryst. coord.
        k(    1) = (   0.0000000   0.5000000   0.0000000), wk =   0.0219780
        k(    2) = (   0.0000000   0.4750000   0.0000000), wk =   0.0219780
        k(    3) = (   0.0000000   0.4500000   0.0000000), wk =   0.0219780
        k(    4) = (   0.0000000   0.4250000   0.0000000), wk =   0.0219780
        k(    5) = (   0.0000000   0.4000000   0.0000000), wk =   0.0219780
        k(    6) = (   0.0000000   0.3750000   0.0000000), wk =   0.0219780
        k(    7) = (   0.0000000   0.3500000   0.0000000), wk =   0.0219780
        k(    8) = (   0.0000000   0.3250000   0.0000000), wk =   0.0219780
        k(    9) = (   0.0000000   0.3000000   0.0000000), wk =   0.0219780
        k(   10) = (   0.0000000   0.2750000   0.0000000), wk =   0.0219780
        k(   11) = (   0.0000000   0.2500000   0.0000000), wk =   0.0219780
        k(   12) = (   0.0000000   0.2250000   0.0000000), wk =   0.0219780
        k(   13) = (   0.0000000   0.2000000   0.0000000), wk =   0.0219780
        k(   14) = (   0.0000000   0.1750000   0.0000000), wk =   0.0219780
        k(   15) = (   0.0000000   0.1500000   0.0000000), wk =   0.0219780
        k(   16) = (   0.0000000   0.1250000   0.0000000), wk =   0.0219780
        k(   17) = (   0.0000000   0.1000000   0.0000000), wk =   0.0219780
        k(   18) = (   0.0000000   0.0750000   0.0000000), wk =   0.0219780
        k(   19) = (   0.0000000   0.0500000   0.0000000), wk =   0.0219780
        k(   20) = (   0.0000000   0.0250000   0.0000000), wk =   0.0219780
        k(   21) = (   0.0000000   0.0000000   0.0000000), wk =   0.0219780
        k(   22) = (  -0.0166667   0.0000000  -0.0166667), wk =   0.0219780
        k(   23) = (  -0.0333333   0.0000000  -0.0333333), wk =   0.0219780
        k(   24) = (  -0.0500000   0.0000000  -0.0500000), wk =   0.0219780
        k(   25) = (  -0.0666667   0.0000000  -0.0666667), wk =   0.0219780
        k(   26) = (  -0.0833333   0.0000000  -0.0833333), wk =   0.0219780
        k(   27) = (  -0.1000000   0.0000000  -0.1000000), wk =   0.0219780
        k(   28) = (  -0.1166667   0.0000000  -0.1166667), wk =   0.0219780
        k(   29) = (  -0.1333333   0.0000000  -0.1333333), wk =   0.0219780
        k(   30) = (  -0.1500000   0.0000000  -0.1500000), wk =   0.0219780
        k(   31) = (  -0.1666667   0.0000000  -0.1666667), wk =   0.0219780
        k(   32) = (  -0.1833333   0.0000000  -0.1833333), wk =   0.0219780
        k(   33) = (  -0.2000000   0.0000000  -0.2000000), wk =   0.0219780
        k(   34) = (  -0.2166667   0.0000000  -0.2166667), wk =   0.0219780
        k(   35) = (  -0.2333333   0.0000000  -0.2333333), wk =   0.0219780
        k(   36) = (  -0.2500000   0.0000000  -0.2500000), wk =   0.0219780
        k(   37) = (  -0.2666667   0.0000000  -0.2666667), wk =   0.0219780
        k(   38) = (  -0.2833333   0.0000000  -0.2833333), wk =   0.0219780
        k(   39) = (  -0.3000000   0.0000000  -0.3000000), wk =   0.0219780
        k(   40) = (  -0.3166667   0.0000000  -0.3166667), wk =   0.0219780
        k(   41) = (  -0.3333333   0.0000000  -0.3333333), wk =   0.0219780
        k(   42) = (  -0.3500000   0.0000000  -0.3500000), wk =   0.0219780
        k(   43) = (  -0.3666667   0.0000000  -0.3666667), wk =   0.0219780
        k(   44) = (  -0.3833333   0.0000000  -0.3833333), wk =   0.0219780
        k(   45) = (  -0.4000000   0.0000000  -0.4000000), wk =   0.0219780
        k(   46) = (  -0.4166667   0.0000000  -0.4166667), wk =   0.0219780
        k(   47) = (  -0.4333333   0.0000000  -0.4333333), wk =   0.0219780
        k(   48) = (  -0.4500000   0.0000000  -0.4500000), wk =   0.0219780
        k(   49) = (  -0.4666667   0.0000000  -0.4666667), wk =   0.0219780
        k(   50) = (  -0.4833333   0.0000000  -0.4833333), wk =   0.0219780
        k(   51) = (  -0.5000000   0.0000000  -0.5000000), wk =   0.0219780
        k(   52) = (  -0.4875000   0.0250000  -0.4875000), wk =   0.0219780
        k(   53) = (  -0.4750000   0.0500000  -0.4750000), wk =   0.0219780
        k(   54) = (  -0.4625000   0.0750000  -0.4625000), wk =   0.0219780
        k(   55) = (  -0.4500000   0.1000000  -0.4500000), wk =   0.0219780
        k(   56) = (  -0.4375000   0.1250000  -0.4375000), wk =   0.0219780
        k(   57) = (  -0.4250000   0.1500000  -0.4250000), wk =   0.0219780
        k(   58) = (  -0.4125000   0.1750000  -0.4125000), wk =   0.0219780
        k(   59) = (  -0.4000000   0.2000000  -0.4000000), wk =   0.0219780
        k(   60) = (  -0.3875000   0.2250000  -0.3875000), wk =   0.0219780
        k(   61) = (  -0.3750000   0.2500000  -0.3750000), wk =   0.0219780
        k(   62) = (  -0.3625000   0.2416667  -0.3625000), wk =   0.0219780
        k(   63) = (  -0.3500000   0.2333333  -0.3500000), wk =   0.0219780
        k(   64) = (  -0.3375000   0.2250000  -0.3375000), wk =   0.0219780
        k(   65) = (  -0.3250000   0.2166667  -0.3250000), wk =   0.0219780
        k(   66) = (  -0.3125000   0.2083333  -0.3125000), wk =   0.0219780
        k(   67) = (  -0.3000000   0.2000000  -0.3000000), wk =   0.0219780
        k(   68) = (  -0.2875000   0.1916667  -0.2875000), wk =   0.0219780
        k(   69) = (  -0.2750000   0.1833333  -0.2750000), wk =   0.0219780
        k(   70) = (  -0.2625000   0.1750000  -0.2625000), wk =   0.0219780
        k(   71) = (  -0.2500000   0.1666667  -0.2500000), wk =   0.0219780
        k(   72) = (  -0.2375000   0.1583333  -0.2375000), wk =   0.0219780
        k(   73) = (  -0.2250000   0.1500000  -0.2250000), wk =   0.0219780
        k(   74) = (  -0.2125000   0.1416667  -0.2125000), wk =   0.0219780
        k(   75) = (  -0.2000000   0.1333333  -0.2000000), wk =   0.0219780
        k(   76) = (  -0.1875000   0.1250000  -0.1875000), wk =   0.0219780
        k(   77) = (  -0.1750000   0.1166667  -0.1750000), wk =   0.0219780
        k(   78) = (  -0.1625000   0.1083333  -0.1625000), wk =   0.0219780
        k(   79) = (  -0.1500000   0.1000000  -0.1500000), wk =   0.0219780
        k(   80) = (  -0.1375000   0.0916667  -0.1375000), wk =   0.0219780
        k(   81) = (  -0.1250000   0.0833333  -0.1250000), wk =   0.0219780
        k(   82) = (  -0.1125000   0.0750000  -0.1125000), wk =   0.0219780
        k(   83) = (  -0.1000000   0.0666667  -0.1000000), wk =   0.0219780
        k(   84) = (  -0.0875000   0.0583333  -0.0875000), wk =   0.0219780
        k(   85) = (  -0.0750000   0.0500000  -0.0750000), wk =   0.0219780
        k(   86) = (  -0.0625000   0.0416667  -0.0625000), wk =   0.0219780
        k(   87) = (  -0.0500000   0.0333333  -0.0500000), wk =   0.0219780
        k(   88) = (  -0.0375000   0.0250000  -0.0375000), wk =   0.0219780
        k(   89) = (  -0.0250000   0.0166667  -0.0250000), wk =   0.0219780
        k(   90) = (  -0.0125000   0.0083333  -0.0125000), wk =   0.0219780
        k(   91) = (   0.0000000   0.0000000   0.0000000), wk =   0.0219780

     Dense  grid:    36325 G-vectors     FFT dimensions: (  48,  48,  48)

     Smooth grid:    12939 G-vectors     FFT dimensions: (  36,  36,  36)

     Dynamical RAM for                 wfc:       0.03 MB

     Dynamical RAM for     wfc (w. buffer):       0.03 MB

     Dynamical RAM for           str. fact:       0.09 MB

     Dynamical RAM for           local pot:       0.00 MB

     Dynamical RAM for          nlocal pot:       0.15 MB

     Dynamical RAM for                qrad:       1.61 MB

     Dynamical RAM for          rho,v,vnew:       0.70 MB

     Dynamical RAM for           G-vectors:       0.36 MB

     Dynamical RAM for          h,s,v(r/c):       0.01 MB

     Dynamical RAM for          <psi|beta>:       0.00 MB

     Dynamical RAM for                 psi:       0.07 MB

     Dynamical RAM for                hpsi:       0.07 MB

     Dynamical RAM for                spsi:       0.07 MB

     Dynamical RAM for      wfcinit/wfcrot:       0.07 MB

     Dynamical RAM for           addusdens:      17.37 MB

     Estimated static dynamical RAM per process >       3.83 MB

     Estimated max dynamical RAM per process >      21.19 MB

     Estimated total dynamical RAM >     127.17 MB

     The potential is recalculated from file :
     ./silicon.save/charge-density

     Starting wfcs are    8 randomized atomic wfcs

     Band Structure Calculation
     Davidson diagonalization with overlap

     Computing kpt #:     1  of    91
     total cpu time spent up to now is        0.2 secs

     Computing kpt #:     2  of    91
     total cpu time spent up to now is        0.2 secs

     Computing kpt #:     3  of    91
     total cpu time spent up to now is        0.3 secs

     Computing kpt #:     4  of    91
     total cpu time spent up to now is        0.3 secs

     Computing kpt #:     5  of    91
     total cpu time spent up to now is        0.3 secs

     Computing kpt #:     6  of    91
     total cpu time spent up to now is        0.4 secs

     Computing kpt #:     7  of    91
     total cpu time spent up to now is        0.4 secs

     Computing kpt #:     8  of    91
     total cpu time spent up to now is        0.5 secs

     Computing kpt #:     9  of    91
     total cpu time spent up to now is        0.5 secs

     Computing kpt #:    10  of    91
     total cpu time spent up to now is        0.6 secs

     Computing kpt #:    11  of    91
     total cpu time spent up to now is        0.6 secs

     Computing kpt #:    12  of    91
     total cpu time spent up to now is        0.6 secs

     Computing kpt #:    13  of    91
     total cpu time spent up to now is        0.7 secs

     Computing kpt #:    14  of    91
     total cpu time spent up to now is        0.7 secs

     Computing kpt #:    15  of    91
     total cpu time spent up to now is        0.7 secs

     Computing kpt #:    16  of    91
     total cpu time spent up to now is        0.8 secs

     Computing kpt #:    17  of    91
     total cpu time spent up to now is        0.8 secs

     Computing kpt #:    18  of    91
     total cpu time spent up to now is        0.8 secs

     Computing kpt #:    19  of    91
     total cpu time spent up to now is        0.9 secs

     Computing kpt #:    20  of    91
     total cpu time spent up to now is        0.9 secs

     Computing kpt #:    21  of    91
     total cpu time spent up to now is        0.9 secs

     Computing kpt #:    22  of    91
     total cpu time spent up to now is        1.0 secs

     Computing kpt #:    23  of    91
     total cpu time spent up to now is        1.0 secs

     Computing kpt #:    24  of    91
     total cpu time spent up to now is        1.0 secs

     Computing kpt #:    25  of    91
     total cpu time spent up to now is        1.1 secs

     Computing kpt #:    26  of    91
     total cpu time spent up to now is        1.1 secs

     Computing kpt #:    27  of    91
     total cpu time spent up to now is        1.1 secs

     Computing kpt #:    28  of    91
     total cpu time spent up to now is        1.2 secs

     Computing kpt #:    29  of    91
     total cpu time spent up to now is        1.2 secs

     Computing kpt #:    30  of    91
     total cpu time spent up to now is        1.3 secs

     Computing kpt #:    31  of    91
     total cpu time spent up to now is        1.3 secs

     Computing kpt #:    32  of    91
     total cpu time spent up to now is        1.3 secs

     Computing kpt #:    33  of    91
     total cpu time spent up to now is        1.4 secs

     Computing kpt #:    34  of    91
     total cpu time spent up to now is        1.4 secs

     Computing kpt #:    35  of    91
     total cpu time spent up to now is        1.4 secs

     Computing kpt #:    36  of    91
     total cpu time spent up to now is        1.5 secs

     Computing kpt #:    37  of    91
     total cpu time spent up to now is        1.5 secs

     Computing kpt #:    38  of    91
     total cpu time spent up to now is        1.5 secs

     Computing kpt #:    39  of    91
     total cpu time spent up to now is        1.5 secs

     Computing kpt #:    40  of    91
     total cpu time spent up to now is        1.6 secs

     Computing kpt #:    41  of    91
     total cpu time spent up to now is        1.6 secs

     Computing kpt #:    42  of    91
     total cpu time spent up to now is        1.6 secs

     Computing kpt #:    43  of    91
     total cpu time spent up to now is        1.7 secs

     Computing kpt #:    44  of    91
     total cpu time spent up to now is        1.7 secs

     Computing kpt #:    45  of    91
     total cpu time spent up to now is        1.7 secs

     Computing kpt #:    46  of    91
     total cpu time spent up to now is        1.8 secs

     Computing kpt #:    47  of    91
     total cpu time spent up to now is        1.8 secs

     Computing kpt #:    48  of    91
     total cpu time spent up to now is        1.8 secs

     Computing kpt #:    49  of    91
     total cpu time spent up to now is        1.9 secs

     Computing kpt #:    50  of    91
     total cpu time spent up to now is        1.9 secs

     Computing kpt #:    51  of    91
     total cpu time spent up to now is        2.0 secs

     Computing kpt #:    52  of    91
     total cpu time spent up to now is        2.0 secs

     Computing kpt #:    53  of    91
     total cpu time spent up to now is        2.0 secs

     Computing kpt #:    54  of    91
     total cpu time spent up to now is        2.1 secs

     Computing kpt #:    55  of    91
     total cpu time spent up to now is        2.1 secs

     Computing kpt #:    56  of    91
     total cpu time spent up to now is        2.2 secs

     Computing kpt #:    57  of    91
     total cpu time spent up to now is        2.2 secs

     Computing kpt #:    58  of    91
     total cpu time spent up to now is        2.3 secs

     Computing kpt #:    59  of    91
     c_bands:  1 eigenvalues not converged
     total cpu time spent up to now is        2.3 secs

     Computing kpt #:    60  of    91
     total cpu time spent up to now is        2.4 secs

     Computing kpt #:    61  of    91
     total cpu time spent up to now is        2.5 secs

     Computing kpt #:    62  of    91
     total cpu time spent up to now is        2.5 secs

     Computing kpt #:    63  of    91
     total cpu time spent up to now is        2.5 secs

     Computing kpt #:    64  of    91
     total cpu time spent up to now is        2.6 secs

     Computing kpt #:    65  of    91
     total cpu time spent up to now is        2.6 secs

     Computing kpt #:    66  of    91
     total cpu time spent up to now is        2.7 secs

     Computing kpt #:    67  of    91
     total cpu time spent up to now is        2.7 secs

     Computing kpt #:    68  of    91
     total cpu time spent up to now is        2.7 secs

     Computing kpt #:    69  of    91
     total cpu time spent up to now is        2.8 secs

     Computing kpt #:    70  of    91
     total cpu time spent up to now is        2.8 secs

     Computing kpt #:    71  of    91
     total cpu time spent up to now is        2.8 secs

     Computing kpt #:    72  of    91
     total cpu time spent up to now is        2.9 secs

     Computing kpt #:    73  of    91
     total cpu time spent up to now is        2.9 secs

     Computing kpt #:    74  of    91
     total cpu time spent up to now is        2.9 secs

     Computing kpt #:    75  of    91
     total cpu time spent up to now is        2.9 secs

     Computing kpt #:    76  of    91
     total cpu time spent up to now is        3.0 secs

     Computing kpt #:    77  of    91
     total cpu time spent up to now is        3.0 secs

     Computing kpt #:    78  of    91
     total cpu time spent up to now is        3.1 secs

     Computing kpt #:    79  of    91
     total cpu time spent up to now is        3.1 secs

     Computing kpt #:    80  of    91
     total cpu time spent up to now is        3.1 secs

     Computing kpt #:    81  of    91
     total cpu time spent up to now is        3.2 secs

     Computing kpt #:    82  of    91
     total cpu time spent up to now is        3.2 secs

     Computing kpt #:    83  of    91
     total cpu time spent up to now is        3.3 secs

     Computing kpt #:    84  of    91
     total cpu time spent up to now is        3.3 secs

     Computing kpt #:    85  of    91
     total cpu time spent up to now is        3.3 secs

     Computing kpt #:    86  of    91
     total cpu time spent up to now is        3.4 secs

     Computing kpt #:    87  of    91
     total cpu time spent up to now is        3.4 secs

     Computing kpt #:    88  of    91
     total cpu time spent up to now is        3.4 secs

     Computing kpt #:    89  of    91
     total cpu time spent up to now is        3.5 secs

     Computing kpt #:    90  of    91
     total cpu time spent up to now is        3.5 secs

     Computing kpt #:    91  of    91
     total cpu time spent up to now is        3.5 secs

     ethr =  1.25E-12,  avg # of iterations = 42.3

     total cpu time spent up to now is        3.5 secs

     End of band structure calculation

          k = 0.5000 0.5000 0.5000 (  1622 PWs)   bands (ev):

    -3.4175  -0.7585   5.0168   5.0168   7.7563   9.5560   9.5560  13.9515

          k = 0.4750 0.4750 0.4750 (  1610 PWs)   bands (ev):

    -3.4530  -0.7076   5.0213   5.0213   7.7615   9.5612   9.5612  13.9595

          k = 0.4500 0.4500 0.4500 (  1610 PWs)   bands (ev):

    -3.5519  -0.5623   5.0347   5.0347   7.7769   9.5765   9.5765  13.9829

          k = 0.4250 0.4250 0.4250 (  1616 PWs)   bands (ev):

    -3.6968  -0.3402   5.0572   5.0572   7.8026   9.6008   9.6008  14.0194

          k = 0.4000 0.4000 0.4000 (  1616 PWs)   bands (ev):

    -3.8696  -0.0596   5.0885   5.0885   7.8384   9.6320   9.6320  14.0640

          k = 0.3750 0.3750 0.3750 (  1610 PWs)   bands (ev):

    -4.0562   0.2651   5.1288   5.1288   7.8841   9.6672   9.6672  14.1057

          k = 0.3500 0.3500 0.3500 (  1610 PWs)   bands (ev):

    -4.2470   0.6239   5.1778   5.1778   7.9395   9.7023   9.7023  14.1201

          k = 0.3250 0.3250 0.3250 (  1615 PWs)   bands (ev):

    -4.4354   1.0099   5.2354   5.2354   8.0042   9.7321   9.7321  14.0565

          k = 0.3000 0.3000 0.3000 (  1615 PWs)   bands (ev):

    -4.6172   1.4181   5.3013   5.3013   8.0775   9.7499   9.7499  13.8199

          k = 0.2750 0.2750 0.2750 (  1615 PWs)   bands (ev):

    -4.7896   1.8448   5.3751   5.3751   8.1589   9.7487   9.7487  13.5337

          k = 0.2500 0.2500 0.2500 (  1618 PWs)   bands (ev):

    -4.9506   2.2869   5.4563   5.4563   8.2471   9.7220   9.7220  13.1408

          k = 0.2250 0.2250 0.2250 (  1612 PWs)   bands (ev):

    -5.0987   2.7417   5.5440   5.5440   8.3409   9.6657   9.6657  12.7153

          k = 0.2000 0.2000 0.2000 (  1606 PWs)   bands (ev):

    -5.2330   3.2062   5.6369   5.6369   8.4383   9.5796   9.5796  12.2738

          k = 0.1750 0.1750 0.1750 (  1600 PWs)   bands (ev):

    -5.3527   3.6768   5.7336   5.7336   8.5365   9.4680   9.4680  11.8250

          k = 0.1500 0.1500 0.1500 (  1594 PWs)   bands (ev):

    -5.4573   4.1493   5.8316   5.8316   8.6319   9.3392   9.3392  11.3752

          k = 0.1250 0.1250 0.1250 (  1606 PWs)   bands (ev):

    -5.5464   4.6173   5.9280   5.9280   8.7192   9.2031   9.2031  10.9325

          k = 0.1000 0.1000 0.1000 (  1606 PWs)   bands (ev):

    -5.6197   5.0710   6.0188   6.0188   8.7908   9.0707   9.0707  10.5097

          k = 0.0750 0.0750 0.0750 (  1618 PWs)   bands (ev):

    -5.6769   5.4944   6.0988   6.0988   8.8351   8.9526   8.9526  10.1292

          k = 0.0500 0.0500 0.0500 (  1630 PWs)   bands (ev):

    -5.7178   5.8596   6.1624   6.1624   8.8384   8.8590   8.8590   9.8277

          k = 0.0250 0.0250 0.0250 (  1639 PWs)   bands (ev):

    -5.7425   6.1205   6.2035   6.2035   8.7987   8.7987   8.8030   9.6445

          k = 0.0000 0.0000 0.0000 (  1639 PWs)   bands (ev):

    -5.7507   6.2178   6.2178   6.2178   8.7778   8.7778   8.7778   9.5869

          k = 0.0333 0.0000 0.0000 (  1639 PWs)   bands (ev):

    -5.7458   6.1844   6.1966   6.1966   8.7657   8.8050   8.8050   9.6197

          k = 0.0667 0.0000 0.0000 (  1635 PWs)   bands (ev):

    -5.7312   6.0878   6.1356   6.1356   8.7300   8.8840   8.8840   9.7136

          k = 0.1000 0.0000 0.0000 (  1627 PWs)   bands (ev):

    -5.7069   5.9379   6.0415   6.0415   8.6725   9.0081   9.0081   9.8569

          k = 0.1333 0.0000 0.0000 (  1607 PWs)   bands (ev):

    -5.6728   5.7464   5.9226   5.9226   8.5961   9.1688   9.1688  10.0338

          k = 0.1667 0.0000 0.0000 (  1595 PWs)   bands (ev):

    -5.6291   5.5241   5.7865   5.7865   8.5040   9.3585   9.3585  10.2263

          k = 0.2000 0.0000 0.0000 (  1599 PWs)   bands (ev):

    -5.5757   5.2795   5.6396   5.6396   8.3996   9.5707   9.5707  10.4129

          k = 0.2333 0.0000 0.0000 (  1603 PWs)   bands (ev):

    -5.5127   5.0187   5.4866   5.4866   8.2861   9.8005   9.8005  10.5656

          k = 0.2667 0.0000 0.0000 (  1607 PWs)   bands (ev):

    -5.4401   4.7465   5.3311   5.3311   8.1667  10.0443  10.0443  10.6491

          k = 0.3000 0.0000 0.0000 (  1607 PWs)   bands (ev):

    -5.3580   4.4658   5.1756   5.1756   8.0440  10.2993  10.2993  10.6342

          k = 0.3333 0.0000 0.0000 (  1607 PWs)   bands (ev):

    -5.2663   4.1791   5.0221   5.0221   7.9203  10.5206  10.5634  10.5634

          k = 0.3667 0.0000 0.0000 (  1607 PWs)   bands (ev):

    -5.1653   3.8879   4.8720   4.8720   7.7975  10.3352  10.8351  10.8351

          k = 0.4000 0.0000 0.0000 (  1607 PWs)   bands (ev):

    -5.0548   3.5935   4.7264   4.7264   7.6774  10.1081  11.1132  11.1132

          k = 0.4333 0.0000 0.0000 (  1615 PWs)   bands (ev):

    -4.9351   3.2968   4.5862   4.5862   7.5613   9.8605  11.3966  11.3966

          k = 0.4667 0.0000 0.0000 (  1612 PWs)   bands (ev):

    -4.8062   2.9985   4.4519   4.4519   7.4505   9.6056  11.6847  11.6847

          k = 0.5000 0.0000 0.0000 (  1612 PWs)   bands (ev):

    -4.6682   2.6992   4.3242   4.3242   7.3459   9.3512  11.9768  11.9768

          k = 0.5333 0.0000 0.0000 (  1612 PWs)   bands (ev):

    -4.5212   2.3993   4.2034   4.2034   7.2484   9.1022  12.2724  12.2724

          k = 0.5667 0.0000 0.0000 (  1612 PWs)   bands (ev):

    -4.3653   2.0995   4.0900   4.0900   7.1588   8.8617  12.5713  12.5713

          k = 0.6000 0.0000 0.0000 (  1620 PWs)   bands (ev):

    -4.2006   1.8000   3.9841   3.9841   7.0776   8.6319  12.8731  12.8731

          k = 0.6333 0.0000 0.0000 (  1624 PWs)   bands (ev):

    -4.0273   1.5014   3.8860   3.8860   7.0055   8.4140  13.1775  13.1775

          k = 0.6667 0.0000 0.0000 (  1624 PWs)   bands (ev):

    -3.8455   1.2041   3.7959   3.7959   6.9429   8.2090  13.4845  13.4845

          k = 0.7000 0.0000 0.0000 (  1632 PWs)   bands (ev):

    -3.6554   0.9085   3.7140   3.7140   6.8903   8.0176  13.7937  13.7937

          k = 0.7333 0.0000 0.0000 (  1624 PWs)   bands (ev):

    -3.4571   0.6150   3.6404   3.6404   6.8481   7.8400  14.1051  14.1051

          k = 0.7667 0.0000 0.0000 (  1624 PWs)   bands (ev):

    -3.2509   0.3241   3.5752   3.5752   6.8167   7.6766  14.4182  14.4182

          k = 0.8000 0.0000 0.0000 (  1624 PWs)   bands (ev):

    -3.0369   0.0363   3.5185   3.5185   6.7964   7.5274  14.7326  14.7326

          k = 0.8333 0.0000 0.0000 (  1608 PWs)   bands (ev):

    -2.8154  -0.2482   3.4704   3.4704   6.7876   7.3924  15.0475  15.0475

          k = 0.8667 0.0000 0.0000 (  1608 PWs)   bands (ev):

    -2.5866  -0.5287   3.4310   3.4310   6.7906   7.2715  15.3609  15.3609

          k = 0.9000 0.0000 0.0000 (  1608 PWs)   bands (ev):

    -2.3508  -0.8049   3.4003   3.4003   6.8056   7.1646  15.6692  15.6692

          k = 0.9333 0.0000 0.0000 (  1608 PWs)   bands (ev):

    -2.1082  -1.0765   3.3784   3.3784   6.8330   7.0715  15.9626  15.9626

          k = 0.9667 0.0000 0.0000 (  1596 PWs)   bands (ev):

    -1.8591  -1.3430   3.3652   3.3652   6.8730   6.9920  16.2114  16.2114

          k = 1.0000 0.0000 0.0000 (  1604 PWs)   bands (ev):

    -1.6040  -1.6040   3.3608   3.3608   6.9259   6.9259  16.3254  16.3254

          k = 1.0000 0.0250 0.0250 (  1610 PWs)   bands (ev):

    -1.6062  -1.5980   3.3233   3.3652   6.9310   6.9815  16.2639  16.2928

          k = 1.0000 0.0500 0.0500 (  1618 PWs)   bands (ev):

    -1.6132  -1.5803   3.2183   3.3784   6.9462   7.1411  16.0963  16.1991

          k = 1.0000 0.0750 0.0750 (  1618 PWs)   bands (ev):

    -1.6258  -1.5507   3.0635   3.4003   6.9715   7.3875  15.8571  16.0548

          k = 1.0000 0.1000 0.1000 (  1614 PWs)   bands (ev):

    -1.6452  -1.5093   2.8792   3.4309   7.0068   7.7018  15.5759  15.8724

          k = 1.0000 0.1250 0.1250 (  1616 PWs)   bands (ev):

    -1.6732  -1.4561   2.6831   3.4700   7.0520   8.0677  15.2719  15.6629

          k = 1.0000 0.1500 0.1500 (  1614 PWs)   bands (ev):

    -1.7119  -1.3911   2.4891   3.5176   7.1070   8.4732  14.9565  15.4353

          k = 1.0000 0.1750 0.1750 (  1614 PWs)   bands (ev):

    -1.7637  -1.3143   2.3078   3.5735   7.1716   8.9097  14.6367  15.1963

          k = 1.0000 0.2000 0.2000 (  1622 PWs)   bands (ev):

    -1.8308  -1.2258   2.1473   3.6374   7.2455   9.3708  14.3169  14.8957

          k = 1.0000 0.2250 0.2250 (  1620 PWs)   bands (ev):

    -1.9150  -1.1256   2.0132   3.7092   7.3286   9.8517  13.9998  14.5617

          k = 1.0000 0.2500 0.2500 (  1624 PWs)   bands (ev):

    -2.0175  -1.0137   1.9095   3.7884   7.4204  10.3483  13.6874  14.2375

          k = 0.9667 0.2417 0.2417 (  1620 PWs)   bands (ev):

    -2.0214  -1.0153   1.9545   3.7652   7.3946  10.1871  13.7128  14.1048

          k = 0.9333 0.2333 0.2333 (  1616 PWs)   bands (ev):

    -2.1071  -0.9388   2.0278   3.7509   7.3813  10.0392  13.6282  13.8869

          k = 0.9000 0.2250 0.2250 (  1620 PWs)   bands (ev):

    -2.2530  -0.8021   2.1252   3.7457   7.3803   9.9055  13.4967  13.6640

          k = 0.8667 0.2167 0.2167 (  1621 PWs)   bands (ev):

    -2.4330  -0.6276   2.2428   3.7497   7.3910   9.7869  13.3478  13.4409

          k = 0.8333 0.2083 0.2083 (  1619 PWs)   bands (ev):

    -2.6306  -0.4291   2.3777   3.7630   7.4130   9.6846  13.1932  13.2187

          k = 0.8000 0.2000 0.2000 (  1619 PWs)   bands (ev):

    -2.8363  -0.2139   2.5269   3.7856   7.4452   9.5998  12.9979  13.0373

          k = 0.7667 0.1917 0.1917 (  1617 PWs)   bands (ev):

    -3.0447   0.0141   2.6883   3.8177   7.4866   9.5341  12.7788  12.8818

          k = 0.7333 0.1833 0.1833 (  1620 PWs)   bands (ev):

    -3.2521   0.2528   2.8598   3.8591   7.5355   9.4891  12.5614  12.7269

          k = 0.7000 0.1750 0.1750 (  1619 PWs)   bands (ev):

    -3.4563   0.5010   3.0394   3.9100   7.5901   9.4669  12.3461  12.5722

          k = 0.6667 0.1667 0.1667 (  1620 PWs)   bands (ev):

    -3.6556   0.7578   3.2257   3.9701   7.6484   9.4692  12.1331  12.4164

          k = 0.6333 0.1583 0.1583 (  1620 PWs)   bands (ev):

    -3.8488   1.0227   3.4170   4.0395   7.7084   9.4979  11.9228  12.2583

          k = 0.6000 0.1500 0.1500 (  1619 PWs)   bands (ev):

    -4.0350   1.2952   3.6119   4.1181   7.7683   9.5538  11.7158  12.0960

          k = 0.5667 0.1417 0.1417 (  1616 PWs)   bands (ev):

    -4.2134   1.5749   3.8091   4.2056   7.8270   9.6366  11.5131  11.9276

          k = 0.5333 0.1333 0.1333 (  1614 PWs)   bands (ev):

    -4.3834   1.8615   4.0072   4.3020   7.8841   9.7441  11.3165  11.7516

          k = 0.5000 0.1250 0.1250 (  1616 PWs)   bands (ev):

    -4.5447   2.1547   4.2052   4.4069   7.9399   9.8710  11.1297  11.5662

          k = 0.4667 0.1167 0.1167 (  1615 PWs)   bands (ev):

    -4.6968   2.4540   4.4017   4.5201   7.9955  10.0058  10.9607  11.3705

          k = 0.4333 0.1083 0.1083 (  1613 PWs)   bands (ev):

    -4.8394   2.7591   4.5956   4.6411   8.0520  10.1224  10.8309  11.1643

          k = 0.4000 0.1000 0.1000 (  1609 PWs)   bands (ev):

    -4.9722   3.0693   4.7696   4.7858   8.1104  10.1669  10.7864  10.9481

          k = 0.3667 0.0917 0.0917 (  1605 PWs)   bands (ev):

    -5.0951   3.3839   4.9047   4.9711   8.1717  10.1046  10.7234  10.8495

          k = 0.3333 0.0833 0.0833 (  1603 PWs)   bands (ev):

    -5.2078   3.7020   5.0458   5.1502   8.2362   9.9781  10.4925  10.9557

          k = 0.3000 0.0750 0.0750 (  1603 PWs)   bands (ev):

    -5.3102   4.0222   5.1918   5.3219   8.3040   9.8292  10.2582  11.0269

          k = 0.2667 0.0667 0.0667 (  1598 PWs)   bands (ev):

    -5.4021   4.3430   5.3411   5.4847   8.3744   9.6753  10.0240  11.0024

          k = 0.2333 0.0583 0.0583 (  1600 PWs)   bands (ev):

    -5.4834   4.6618   5.4919   5.6369   8.4463   9.5232   9.7936  10.8630

          k = 0.2000 0.0500 0.0500 (  1603 PWs)   bands (ev):

    -5.5541   4.9753   5.6415   5.7767   8.5177   9.3765   9.5715  10.6424

          k = 0.1667 0.0417 0.0417 (  1606 PWs)   bands (ev):

    -5.6140   5.2784   5.7863   5.9018   8.5862   9.2369   9.3628  10.3875

          k = 0.1333 0.0333 0.0333 (  1606 PWs)   bands (ev):

    -5.6632   5.5634   5.9213   6.0098   8.6489   9.1058   9.1738  10.1342

          k = 0.1000 0.0250 0.0250 (  1627 PWs)   bands (ev):

    -5.7014   5.8188   6.0402   6.0980   8.7023   8.9851   9.0120   9.9092

          k = 0.0667 0.0167 0.0167 (  1634 PWs)   bands (ev):

    -5.7288   6.0276   6.1348   6.1636   8.7432   8.8807   8.8862   9.7341

          k = 0.0333 0.0083 0.0083 (  1639 PWs)   bands (ev):

    -5.7452   6.1679   6.1964   6.2041   8.7690   8.8056   8.8057   9.6241

          k = 0.0000 0.0000 0.0000 (  1639 PWs)   bands (ev):

    -5.7507   6.2178   6.2178   6.2178   8.7778   8.7778   8.7778   9.5869

     Writing all to output data dir ./silicon.save/

     init_run     :      0.08s CPU      0.10s WALL (       1 calls)
     electrons    :      3.22s CPU      3.38s WALL (       1 calls)

     Called by init_run:
     wfcinit      :      0.00s CPU      0.00s WALL (       1 calls)
     wfcinit:atom :      0.00s CPU      0.00s WALL (      91 calls)
     wfcinit:wfcr :      0.09s CPU      0.09s WALL (      91 calls)
     potinit      :      0.01s CPU      0.01s WALL (       1 calls)
     hinit0       :      0.03s CPU      0.04s WALL (       1 calls)

     Called by electrons:
     c_bands      :      3.22s CPU      3.38s WALL (       1 calls)
     v_of_rho     :      0.01s CPU      0.01s WALL (       1 calls)
     v_h          :      0.00s CPU      0.00s WALL (       1 calls)
     v_xc         :      0.01s CPU      0.01s WALL (       1 calls)
     newd         :      0.02s CPU      0.03s WALL (       1 calls)

     Called by c_bands:
     init_us_2    :      0.00s CPU      0.00s WALL (      91 calls)
     init_us_2:cp :      0.00s CPU      0.00s WALL (      91 calls)
     cegterg      :      3.10s CPU      3.25s WALL (     232 calls)

     Called by sum_band:

     Called by *egterg:
     cdiaghg      :      0.16s CPU      0.17s WALL (    3939 calls)
     cegterg:over :      0.17s CPU      0.17s WALL (    3848 calls)
     cegterg:upda :      0.06s CPU      0.06s WALL (    3848 calls)
     cegterg:last :      0.15s CPU      0.16s WALL (    2670 calls)
     h_psi        :      2.42s CPU      2.54s WALL (    4171 calls)
     s_psi        :      0.13s CPU      0.14s WALL (    4171 calls)
     g_psi        :      0.02s CPU      0.02s WALL (    3848 calls)

     Called by h_psi:
     h_psi:calbec :      0.22s CPU      0.23s WALL (    4171 calls)
     vloc_psi     :      2.05s CPU      2.15s WALL (    4171 calls)
     add_vuspsi   :      0.14s CPU      0.14s WALL (    4171 calls)

     General routines
     calbec       :      0.21s CPU      0.22s WALL (    4171 calls)
     fft          :      0.00s CPU      0.00s WALL (      13 calls)
     ffts         :      0.00s CPU      0.00s WALL (       1 calls)
     fftw         :      1.71s CPU      1.80s WALL (   44986 calls)
     interpolate  :      0.00s CPU      0.00s WALL (       1 calls)
     davcio       :      0.00s CPU      0.01s WALL (     182 calls)

     Parallel routines

     PWSCF        :      3.38s CPU      3.60s WALL


   This run was terminated on:   9:51:11  20Oct2023            

=------------------------------------------------------------------------------=
   JOB DONE.
=------------------------------------------------------------------------------=
